<?xml version="1.0"?>
<VTKFile type="UnstructuredGrid"  version="0.1"  >
<UnstructuredGrid>
<Piece  NumberOfPoints="5665" NumberOfCells="10866">
<Points>
<DataArray  type="Float64"  NumberOfComponents="3"  format="ascii">0 0 0  0.005238026502541167 0.0121532396601488 0  0.01034676844792354 0.01689976574376667 0  0.01543408867173694 0.02041904118380813 0  0.0205102348999341 0.02329815830290497 0  0.02557917784950812 0.02576459951742299 0  0.03064295500511558 0.02793509234377689 0  0.03570277759930535 0.0298790283068407 0  0.04075943555845489 0.03164166229670518 0  0.04581347820995564 0.03325446528513457 0  0.05086530608158131 0.03474038351230363 0  0.05591522204376106 0.03611676842813705 0  0.06096346185057889 0.03739712638647186 0  0.06601021339667874 0.03859222187334359 0  0.0710556294024393 0.03971080424078027 0  0.07609983607684939 0.04076010400301824 0  0.08114293921509697 0.0417461821674347 0  0.08618502860241112 0.04267418253070718 0  0.09122618126598143 0.043548517981297 0  0.09626646392312314 0.04437301075486622 0  0.1013059348559291 0.04515099983309559 0  0.1063446453685388 0.04588542443065277 0  0.1113826409352795 0.0465788897722046 0  0.1164199621162375 0.04723371954550182 0  0.1214566452953707 0.04785199818785829 0  0.1264927232814744 0.04843560531547794 0  0.1315282258019162 0.04898624400955593 0  0.1365631799116385 0.04950546424801371 0  0.1415976103345504 0.04999468246384916 0  0.1466315397504873 0.05045519798506762 0  0.1516649890379851 0.05088820694318184 0  0.1566979774809081 0.05129481411099283 0  0.1617305229453022 0.05167604303443216 0  0.1667626420315509 0.05203284474965102 0  0.171794350205927 0.05236610531956329 0  0.1768256619148477 0.05267665237956284 0  0.1818565906845366 0.05296526084712219 0  0.1868871492083055 0.05323265792221688 0  0.1919173494232881 0.05347952748335247 0  0.1969472025781407 0.05370651396615293 0  0.2019767192929772 0.0539142257970593 0  0.2070059096126012 0.05410323844296341 0  0.2120347830539274 0.05427409712801209 0  0.2170633486483511 0.05442731926092947 0  0.222091614979707 0.05456339660968747 0  0.2271195902183664 0.05468279725494146 0  0.2321472821519424 0.05478596734913288 0  0.2371746982130071 0.0548733327043778 0  0.242201845504167 0.05494530022907924 0  0.2472287308208 0.05500225923051334 0  0.2522553606717144 0.05504458259836192 0  0.2572817412979564 0.05507262788222707 0  0.2623078786899665 0.05508673827450852 0  0.2673337786032577 0.05508724350860923 0  0.2723594465727689 0.05507446068121672 0  0.2773848879260261 0.05504869500636039 0  0.2824101077952329 0.05501024050803788 0  0.2874351111283929 0.05495938065741866 0  0.2924599026995572 0.05489638895995084 0  0.2974844871182815 0.05482152949710279 0  0.3025088688383624 0.05473505742695095 0  0.3075330521659239 0.05463721944737245 0  0.3125570412669076 0.05452825422520034 0  0.317580840174022 0.0544083927943504 0  0.3226044527931976 0.05427785892561688 0  0.3276278829095894 0.05413686947056456 0  0.3326511341931652 0.05398563468169943 0  0.3376742102039154 0.05382435851088885 0  0.3426971143967122 0.05365323888780957 0  0.3477198501258504 0.05347246798003417 0  0.3527424206492914 0.05328223243621363 0  0.3577648291326367 0.05308271361368044 0  0.3627870786528491 0.0528740877916746 0  0.3678091722017434 0.05265652637128731 0  0.3728311126892615 0.05243019606312002 0  0.3778529029465496 0.0521952590635683 0  0.3828745457288512 0.05195187322056304 0  0.3878960437182294 0.05170019218952852 0  0.3929173995261309 0.0514403655802548 0  0.3979386156958011 0.05117253909532261 0  0.4029596947045647 0.05089685466066743 0  0.4079806389659755 0.05061345054882115 0  0.4130014508318492 0.05032246149532771 0  0.4180221325941841 0.05002401880878829 0  0.4230426864869778 0.04971825047495815 0  0.4280631146879479 0.04940528125528214 0  0.43308341932016 0.04908523278022921 0  0.4381036024535731 0.04875822363775598 0  0.4431236661065031 0.04842436945720797 0  0.448143612247013 0.04808378298894189 0  0.453163442794233 0.0477365741799331 0  0.4581831596196138 0.04738285024561264 0  0.4632027645481188 0.0470227157381616 0  0.4682222593593586 0.04665627261147375 0  0.4732416457886692 0.04628362028298268 0  0.4782609255281408 0.04590485569253701 0  0.4832801002275958 0.04552007335849396 0  0.4882991714955231 0.04512936543118998 0  0.4933181408999677 0.04473282174393684 0  0.49833700996938 0.04433052986168239 0  0.5033557801934271 0.04392257512746423 0  0.5083744530237669 0.04350904070677837 0  0.5133930298747884 0.04309000762997599 0  0.5184115121243186 0.04266555483279374 0  0.5234299011143 0.04223575919511792 0  0.5284481981514371 0.04180069557807491 0  0.5334664045078168 0.04136043685953591 0  0.5384845214215018 0.04091505396811783 0  0.5435025500970989 0.04046461591575749 0  0.5485204917063042 0.04000918982893143 0  0.5535383473884251 0.03954884097858998 0  0.5585561182508825 0.03908363280886933 0  0.5635738053696907 0.03861362696464198 0  0.5685914097899193 0.03813888331796304 0  0.5736089325261368 0.0376594599934653 0  0.5786263745628358 0.03717541339275407 0  0.5836437368548431 0.03668679821784964 0  0.5886610203277121 0.03619366749372188 0  0.5936782258781016 0.03569607258996044 0  0.5986953543741396 0.03519406324161968 0  0.6037124066557727 0.03468768756927747 0  0.6087293835351048 0.03417699209834292 0  0.6137462857967197 0.03366202177764776 0  0.6187631141979951 0.03314281999735318 0  0.6237798694694028 0.03261942860620303 0  0.6287965523147994 0.0320918879281518 0  0.633813163411706 0.03156023677839564 0  0.6388297034115783 0.03102451247883129 0  0.6438461729400667 0.0304847508729692 0  0.6488625725972671 0.02994098634032237 0  0.6538789029579641 0.02939325181029495 0  0.6588951645718641 0.0288415787755908 0  0.6639113579638226 0.02828599730516195 0  0.6689274836340612 0.02772653605671687 0  0.673943542058379 0.02716322228880629 0  0.6789595336883573 0.02659608187250356 0  0.6839754589515551 0.0260251393026968 0  0.6889913182517017 0.02545041770900753 0  0.6940071119688789 0.02487193886635208 0  0.699022840459701 0.0242897232051584 0  0.7040385040574866 0.02370378982125323 0  0.7090541030724258 0.02311415648543186 0  0.7140696377917422 0.02252083965272285 0  0.7190851084798485 0.02192385447136002 0  0.7241005153784998 0.02132321479147222 0  0.7291158587069391 0.0207189331735022 0  0.7341311386620403 0.02011102089636457 0  0.7391463554184465 0.01949948796535284 0  0.7441615091287034 0.01888434311980471 0  0.7491765999233887 0.01826559384053462 0  0.7541916279112387 0.01764324635704245 0  0.7592065931792701 0.01701730565450599 0  0.7642214957928977 0.01638777548056568 0  0.769236335796051 0.01575465835190849 0  0.7742511132112837 0.01511795556065875 0  0.7792658280398836 0.01447766718058234 0  0.7842804802619768 0.01383379207311114 0  0.7892950698366302 0.01318632789319397 0  0.7943095967019511 0.01253527109497995 0  0.7993240607751827 0.0118806169373405 0  0.8043384619527985 0.01122235948923519 0  0.8093528001105926 0.01056049163492655 0  0.8143670751037693 0.009895005079050124 0  0.8193812867670283 0.009225890351543078 0  0.8243954349146481 0.008553136812437526 0  0.8294095193405684 0.007876732656522251 0  0.8344235398184682 0.007196664917877517 0  0.8394374961018436 0.006512919474287168 0  0.8444513879240824 0.005825481051532076 0  0.849465214998537 0.005134333227568549 0  0.8544789770185954 0.004439458436595978 0  0.8594926736577505 0.003740837973016517 0  0.8645063045696671 0.003038451995291146 0  0.8695198693882481 0.002332279529694675 0  0.8745333677276973 0.001622298473973488 0  0.8795467991825824 0.0009084856009084902 0  0.8845601633278956 0.0001908165617869224 0  0.8895734597191119 -0.0005307341102147537 0  0.8945866878922478 -0.001256192996733687 0  0.8995998473639164 -0.001985587791006797 0  0.9046129376313824 -0.002718947294737539 0  0.9096259581726157 -0.003456301415040958 0  0.9146389084463429 -0.004197681161464576 0  0.9196517878920988 -0.004943118643082908 0  0.9246645959302748 -0.005692647065663109 0  0.9296773319621684 -0.006446300728900088 0  0.9346899953700288 -0.007204115023718713 0  0.9397025855171041 -0.007966126429641011 0  0.9447151017476861 -0.008732372512217155 0  0.949727543387153 -0.009502891920517193 0  0.9547399097420136 -0.01027772438468268 0  0.9597522000999473 -0.01105691071353667 0  0.9647644137298468 -0.0118404927922493 0  0.9697765498818562 -0.01262851358005819 0  0.9747886077874109 -0.01342101710804232 0  0.9798005866592752 -0.01421804847694689 0  0.9848124856915792 -0.0150196538550587 0  0.9898243040598554 -0.01582588047613009 0  0.9948360409210739 -0.0166367766373504 0  0.9998476954136774 -0.01745239169736331 0  0.9948106293493593 -0.01809260583579465 0  0.9897736456536567 -0.01872810107543342 0  0.9847367434650114 -0.01935892677492327 0  0.9796999219403941 -0.01998513123145354 0  0.9746631802553368 -0.02060676167877656 0  0.9696265176039702 -0.02122386428517915 0  0.9645899331990582 -0.02183648415140651 0  0.9595534262720363 -0.02244466530853759 0  0.9545169960730487 -0.02304845071581004 0  0.9494806418709878 -0.02364788225839399 0  0.9444443629535334 -0.02424300074511249 0  0.939408158627194 -0.02483384590610709 0  0.9343720282173481 -0.02542045639044785 0  0.929335971068287 -0.02600286976368493 0  0.9242999865432591 -0.02658112250534037 0  0.9192640740245138 -0.02715525000633903 0  0.9142282329133482 -0.02772528656637582 0  0.9091924626301543 -0.0282912653912179 0  0.9041567626144661 -0.02885321858993978 0  0.8991211323250108 -0.02941117717208898 0  0.8940855712397578 -0.02996517104478055 0  0.8890500788559724 -0.03051522900971794 0  0.8840146546902675 -0.03106137876013807 0  0.8789792982786592 -0.0316036468776781 0  0.873944009176623 -0.03214205882916156 0  0.8689087869591506 -0.0326766389633012 0  0.8638736312208103 -0.03320741050731613 0  0.8588385415758056 -0.03373439556345997 0  0.8538035176580394 -0.03425761510545788 0  0.8487685591211763 -0.03477708897484892 0  0.8437336656387094 -0.0352928358772309 0  0.8386988369040269 -0.03580487337840445 0  0.833664072630481 -0
[...]
<PointData  Scalars="u"> 
<DataArray  type="Float64"  Name="u"  format="ascii">7.1104744470069733e+01  6.8973572078306304e+01  6.6936532081945998e+01  6.5032654058630101e+01  6.3265920949236445e+01  6.1561085863514187e+01  5.9961590901898603e+01  5.8423078976898573e+01  5.6945526284222382e+01  5.5539674222948705e+01  5.4188663364811426e+01  5.2897650270970537e+01  5.1654413950622590e+01  5.0465599279222594e+01  4.9319886648101395e+01  4.8221816888978054e+01  4.7162865934217272e+01  4.6147356917435992e+01  4.5176004128115515e+01  4.4235857894565108e+01  4.3332441862938069e+01  4.2459326570316556e+01  4.1621362507782791e+01  4.0812594589094800e+01  4.0037404877489060e+01  3.9286460271089069e+01  3.8562734446856680e+01  3.7869307503371566e+01  3.7199411450387196e+01  3.6550452141696091e+01  3.5927798590184757e+01  3.5324567091919370e+01  3.4743724859219562e+01  3.4185441174258514e+01  3.3644013976557552e+01  3.3124160996747960e+01  3.2619392404650213e+01  3.2132376644893398e+01  3.1665442742711964e+01  3.1212563505280713e+01  3.0773306015724064e+01  3.0351606154047218e+01  2.9942017752247608e+01  2.9551292519014368e+01  2.9170089715739667e+01  2.8803675526023323e+01  2.8447119727436650e+01  2.8103049068961699e+01  2.7773929002031672e+01  2.7454088302874329e+01  2.7142833921892080e+01  2.6844066054687730e+01  2.6553033443828543e+01  2.6274386611262223e+01  2.6007463243025086e+01  2.5746052391301987e+01  2.5493428755434259e+01  2.5251496950073140e+01  2.5015799726021353e+01  2.4785830033677456e+01  2.4565900045496818e+01  2.4351751260261864e+01  2.4145944172918256e+01  2.3948604876542646e+01  2.3755006161494396e+01  2.3569935530241782e+01  2.3388913777746090e+01  2.3216346791486156e+01  2.3047778284914543e+01  2.2885332485725904e+01  2.2725474088720592e+01  2.2572644874134951e+01  2.2424534856099228e+01  2.2282254503230053e+01  2.2147422909157140e+01  2.2014455695294455e+01  2.1884240496929021e+01  2.1759622866665083e+01  2.1637460051379200e+01  2.1520339743559237e+01  2.1409579764255607e+01  2.1302412860608744e+01  2.1196190475180355e+01  2.1095577457213089e+01  2.0999718461169511e+01  2.0905810382067529e+01  2.0812494652095744e+01  2.0724491314537055e+01  2.0637246705013901e+01  2.0554643728966198e+01  2.0473806225901093e+01  2.0395714586492286e+01  2.0320026207717838e+01  2.0247077017285189e+01  2.0176827243189866e+01  2.0109604153448537e+01  2.0045935960941122e+01  1.9981881126104465e+01  1.9922191601706032e+01  1.9862395497671997e+01  1.9807165801116280e+01  1.9751324831932124e+01  1.9699904612907485e+01  1.9647943968903189e+01  1.9599462452395080e+01  1.9550325284001318e+01  1.9505291828953656e+01  1.9460231472846928e+01  1.9420510804383106e+01  1.9379199284177140e+01  1.9340237127550719e+01  1.9300059800868343e+01  1.9261528275980258e+01  1.9224855394446987e+01  1.9190176379168676e+01  1.9156230625389853e+01  1.9125562259523488e+01  1.9094076137323405e+01  1.9062040106425201e+01  1.9032446998380557e+01  1.9002319474750731e+01  1.8975540755464088e+01  1.8948187155194624e+01  1.8924211831146824e+01  1.8898747617714164e+01  1.8876079779857303e+01  1.8851758442188604e+01  1.8830428381367160e+01  1.8808100570276252e+01  1.8785224927637405e+01  1.8765122366534463e+01  1.8743290075663840e+01  1.8723100251015108e+01  1.8705913097597701e+01  1.8687854875618051e+01  1.8667954168835927e+01  1.8650131958418594e+01  1.8633774843293921e+01  1.8614839295210338e+01  1.8596537467655985e+01  1.8579268176392002e+01  1.8560843553908551e+01  1.8543606830185869e+01  1.8525774894690052e+01  1.8508350386247965e+01  1.8491797697794119e+01  1.8475314049639657e+01  1.8456668665617737e+01  1.8440182011948234e+01  1.8421153390546337e+01  1.8403277271348820e+01  1.8382894071344261e+01  1.8364417059561855e+01  1.8343528460580011e+01  1.8325384780628266e+01  1.8304162513786210e+01  1.8280393373134878e+01  1.8256881920468281e+01  1.8231227644785889e+01  1.8206050672487478e+01  1.8181978893727258e+01  1.8154055843356527e+01  1.8125170359092188e+01  1.8095120927141803e+01  1.8064510742323666e+01  1.8030057853141773e+01  1.7995776763126784e+01  1.7957371738781934e+01  1.7918422527049927e+01  1.7875140794702855e+01  1.7831309848368889e+01  1.7784092032366779e+01  1.7734377659525158e+01  1.7680190137009685e+01  1.7624836620963332e+01  1.7563644709579091e+01  1.7500394682008686e+01  1.7430956960844707e+01  1.7358180350145538e+01  1.7282619619652372e+01  1.7199957402896281e+01  1.7110677216624318e+01  1.7017511233813799e+01  1.6916448486818684e+01  1.6811216558351465e+01  1.6699456547651810e+01  1.6578052642949043e+01  1.6450972302212005e+01  1.6313672246339504e+01  1.6170548700804016e+01  1.6016782105277862e+01  1.5852930668338818e+01  1.5681381186722385e+01  1.5498784895975209e+01  1.5307351424695451e+01  1.5105874777496721e+01  1.4897428706207693e+01  1.4684850226065544e+01  1.4472103606335645e+01  1.4272422098753275e+01  1.4577520697778887e+01  1.4849334196489497e+01  1.5104649779018221e+01  1.5346099789772772e+01  1.5575536953699642e+01  1.5791415975676104e+01  1.5992973025391525e+01  1.6184914498196282e+01  1.6367099277746622e+01  1.6538320918043741e+01  1.6700033713880217e+01  1.6850849575100511e+01  1.6990771108554750e+01  1.7124415143365770e+01  1.7251402328417385e+01  1.7371251308474090e+01  1.7484766598924722e+01  1.7589416807280493e+01  1.7687545777242896e+01  1.7783453757546301e+01  1.7874266989869461e+01  1.7960948288862500e+01  1.8043156545488383e+01  1.8119486360624315e+01  1.8189588550821941e+01  1.8259446575306239e+01  1.8326138643994142e+01  1.8390241679676613e+01  1.8449415624012346e+01  1.8505559819384398e+01  1.8561507673873976e+01  1.8613731980719070e+01  1.8665619446415995e+01  1.8714200449911342e+01  1.8762443255580575e+01  1.8807900738889540e+01  1.8849082703928033e+01  1.8892012639572773e+01  1.8932707595767216e+01  1.8974181615146186e+01  1.9012789132634911e+01  1.9052806490788676e+01  1.9091349367901422e+01  1.9128983214607498e+01  1.9163617688365676e+01  1.9197585148686567e+01  1.9231361753262259e+01  1.9265856960523045e+01  1.9301038967430788e+01  1.9333087129746470e+01  1.9367400266102361e+01  1.9399361671729160e+01  1.9430365672750895e+01  1.9462410372072259e+01  1.9496620065130191e+01  1.9528463611050018e+01  1.9559306567137558e+01  1.9592646091162514e+01  1.9627514617397029e+01  1.9660639078457532e+01  1.9696003659605537e+01  1.9729657362457715e+01  1.9761299572448699e+01  1.9795927644096945e+01  1.9831802543024544e+01  1.9867086956882158e+01  1.9904945130620526e+01  1.9941706919274736e+01  1.9976787530718116e+01  2.0014578262989975e+01  2.0054194449458954e+01  2.0094136555569360e+01  2.0135205150570972e+01  2.0175826272347262e+01  2.0215595567018131e+01  2.0257249116378059e+01  2.0301648197909131e+01  2.0345111889943723e+01  2.0391772366057090e+01  2.0437621878044730e+01  2.0482156108574717e+01  2.0529733462358049e+01  2.0580336654926302e+01  2.0630053936397147e+01  2.0680117188903953e+01  2.0734903544387745e+01  2.0790326102745265e+01  2.0848278568763682e+01  2.0903817299895337e+01  2.0959641855224216e+01  2.1018484903283809e+01  2.1079874545729119e+01  2.1144561977607079e+01  2.1209599721478156e+01  2.1278518838819622e+01  2.1347624016916043e+01  2.1420360346203644e+01  2.1492979656908943e+01  2.1568451525617004e+01  2.1642649944025695e+01  2.1721835382049107e+01  2.1803988343337618e+01  2.1887115300534532e+01  2.1974781029446145e+01  2.2062992610750310e+01  2.2151981058962626e+01  2.2245573206432933e+01  2.2342891744115075e+01  2.2440789754624259e+01  2.2543080850554826e+01  2.2647522593254738e+01  2.2752551523794235e+01  2.2863806751709912e+01  2.2976812965598882e+01  2.3095252818188612e+01  2.3215063016723061e+01  2.3340781049173930e+01  2.3469635756683857e+01  2.3602255085153651e+01  2.3735885770460779e+01  2.3873273746971979e+01  2.4013680563785858e+01  2.4160434089998603e+01  2.4314934897123845e+01  2.4471809238482638e+01  2.4633351336085596e+01  2.4795710349813394e+01  2.4966766648593378e+01  2.5143165231103932e+01  2.5322952367188897e+01  2.5509546077018999e+01  2.5703826404897036e+01  2.5901558160709033e+01  2.6105505278488874e+01  2.6317853728555789e+01  2.6535854887573272e+01  2.6757986470716553e+01  2.6988171340924797e+01  2.7227257864628164e+01  2.7471929525982247e+01  2.7725224651608858e+01  2.7983962836693692e+01  2.8253279810123253e+01  2.8528350920747506e+01  2.8815079013065613e+01  2.9109488634324947e+01  2.9414911336681406e+01  2.9727647814695739e+01  3.0052096436017241e+01  3.0386115971424434e+01  3.0730387121609354e+01  3.1081972218118278e+01  3.1449071771702219e+01  3.1826606949300484e+01  3.2217563508508157e+01  3.2620674690010460e+01  3.3037889424382286e+01  3.3468832045504080e+01  3.3913699914715792e+01  3.4372614254843285e+01  3.4846048506013766e+01  3.5331741941805838e+01  3.5836693830944647e+01  3.6357172143116017e+01  3.6897358055550789e+01  3.7453144176360716e+01  3.8029981273480807e+01  3.8623882202761187e+01  3.9240572736071933e+01  3.9874364915011022e+01  4.0529144419336035e+01  4.1210940721823341e+01  4.1915092359782591e+01  4.2643436236248732e+01  4.3392598772523456e+01  4.4169683245174994e+01  4.4975001573382734e+01  4.5805580327323938e+01  4.6669375724155451e+01  4.7559218054557149e+01  4.8483249697103268e+01  4.9438968659557538e+01  5.0427614034832750e+01  5.1451757076382471e+01  5.2509259343921300e+01  5.3600757572915754e+01  5.4736715436890023e+01  5.5914995831749280e+01  5.7127653037355635e+01  5.8390603394865842e+01  5.9689966666732879e+01  6.1044580459590961e+01  6.2437993319396945e+01  6.3885367207785670e+01  6.5360903487175364e+01  6.6896613760241692e+01  6.8460592541169689e+01  7.0028572713003925e+01  4.2542323529298287e+01  0.0000000000000000e+00  0.0000000000000000e+00  0.0000000000000000e+00  7.0409170610748973e+01  7.0968449827302791e+01  4.2571104686401164e+01  4.2692398793348914e+01  4.2627830294514830e+01  4.2680006844132294e+01  4.2624975349539461e+01  4.2550207536231277e+01  4.2607565619596905e+01  4.3026537803487599e+01  4.2811116283792479e+01  4.3019496137655530e+01  4.3833582138442900e+01  4.3900978922292410e+01  4.4570390186635663e+01  4.0984815201996504e+01  5.9060631215505637e+01  0.0000000000000000e+00  0.0000000000000000e+00  0.0000000000000000e+00  0.0000000000000000e+00  0.0000000000000000e+00  0.0000000000000000e+00  0.0000000000000000e+00  0.0000000000000000e+00  0.0000000000000000e+00  0.0000000000000000e+00  0.0000000000000000e+00  0.0000000000000000e+00  0.0000000000000000e+00  0.0000000000000000e+00  0.0000000000000000e+00  0.0000000000000000e+00  0.0000000000000000e+00  0.0000000000000000e+00  0.0000000000000000e+00  0.0000000000000000e+00  0.0000000000000000e+00  0.0000000000000000e+00  0.0000000000000000e+00  0.0000000000000000e+00  0.0000000000000000e+00  0.0000000000000000e+00  0.0000000000000000e+00  0.0000000000000000e+00  0.0000000000000000e+00  0.0000000000000000e+00  4.5574061781550490e+01  4.2753191825205612e+01  4.2442398680680618e+01  4.0897894310876161e+01  4.2644812257575438e+01  4.1216121917641672e+01  4.2482750708696273e+01  4.2083750206482051e+01  4.1996821822658646e+01  4.2434505141498001e+01  4.2089564423291179e+01  4.2510382785909265e+01  4.2303308618842941e+01  4.2601132543696622e+01  4.2429598452183413e+01  4.1854077783064007e+01  3.4500125440174720e+01  4.2774031083444363e+01  4.1997594287483381e+01  3.5433411893528934e+01  3.9919489501181694e+01  3.3817774546147348e+01  4.3065398331465147e+01  3.8208755824650524e+01  3.8091274475956425e+01  4.3907525699445522e+01  3.1145859711029527e+01  2.6481904121533880e+01  3.4748415130673656e+01  4.4836251169721400e+01  2.5480993103033104e+01  2.3590804802329178e+01  2.7819754675745656e+01  4.2752434041028444e+01  4.1547380684944500e+01  3.4237548446529630e+01  2.1818664718953883e+01  2.0136691938123771e+01  3.7995193867766076e+01  2.9404706946847334e+01  4.6131019980511141e+01  3.1108524531187690e+01  4.3285024380358202e+01  2.3828388157031267e+01  2.1816878242866771e+01  2.8592961450883681e+01  3.5059317893401115e+01  1.9487789809410803e+01  2.4726158086649853e+01  3.3420103075798224e+01  2.3310548495722429e+01  2.7320621951557627e+01  4.8892245006601854e+01  5.7870247628630430e+01  2.1224986875167133e+01  1.9778507596212346e+01  2.0583133128589175e+01  1.9483295233908297e+01  1.8710956914772446e+01  1.7984569198849922e+01  4.5315097626852015e+01  2.1955127762774854e+01  2.4669786816726596e+01  3.0074064832730226e+01  3.8884890487502460e+01  3.3762578502493916e+01  4.3995451032641697e+01  1.8802203722312495e+01  1.6929484160341477e+01  2.6421640362479565e+01  2.1312927156031002e+01  2.3389504424661556e+01  2.7409246834431492e+01  1.9725210634581856e+01  5.7633903720440188e+01  2.0265883224864009e+01  1.8808679033069801e+01  4.2638628355431933e+01  1.9399433638468494e+01  1.7739156105082500e+01  5.6220138417631887e+01  6.4258664857512059e+01  1.8954613804248400e+01  1.8653350098543619e+01  2.5585351806704178e+01  2.9936734289851579e+01  2.2609969908755051e+01  2.0744771142061982e+01  2.9837487450846481e+01  2.8894150273568815e+01  2.3937478983760826e+01  2.6457234680832762e+01  2.1368857409148898e+01  4.9828047747231487e+01  2.9626774017061521e+01  3.4343871946671392e+01  2.0180121330158684e+01  1.8374186251537179e+01  1.7992566182711759e+01  1.7358390236898924e+01  1.6550431575701854e+01  1.9673233009560004e+01  1.9235262312013710e+01  1.9567397405592654e+01  6.0989031356579268e+01  4.0387667124761741e+01  1.6377288565996242e+01  3.2837005708591484e+01  3.9243904610804670e+01  2.1719351889620057e+01  1.5403492443741191e+01  4.0595600268003054e+01  1.9567757251071633e+01  4.6354329697096254e+01  2.0580566435410137e+01  5.4936356629551419e+01  2.2640516699512151e+01  2.3986289440562192e+01  2.2131108914441327e+01  1.8820836934096121e+01  1.8255764659545473e+01  1.5149013688499537e+01  2.0234892209579993e+01  1.9894148415912376e+01  2.1869001525986654e+01  2.2721762398573681e+01  1.9001229575928416e+01  2.4836159980611693e+01  4.7034965085096175e+01  4.2744271073860780e+01  2.6842678755019271e+01  4.6732626352898301e+01  5.5960125774914495e+01  6.3884608448941947e+01  1.9218248136701131e+01  3.0264446907924139e+01  1.8139773552452954e+01  1.8703290031279359e+01  1.7578466690716702e+01  1.6475858521772992e+01  2.4853959079611609e+01  3.8850708319196954e+01  6.7649289680733062e+01  4.1585134990505793e+01  2.6022999942975112e+01  2.7523037878784766e+01  1.8453434491687620e+01  3.4037198635078617e+01  2.0827489262604683e+01  4.1370175030343418e+01  3.9490867742673473e+01  2.6680883655499901e+01  2.0983891144273201e+01  1.7669453101001690e+01  1.8813106457901021e+01  2.0436524496468213e+01  1.8555506612576572e+01  1.9393996181695325e+01  3.1212157660717274e+01  1.9737965436925222e+01  2.0055292193445379e+01  3.7249645439396204e+01  2.5091701283657262e+01  1.7502931233335811e+01  1.9650063092310976e+01  2.3309556051412457e+01  1.7941347997974898e+01  6.9148023923407308e+01  2.1577859153173307e+01  4.1957433997947405e+01  2.9111288575858481e+01  3.8022731834796524e+01  6.2972177651519523e+01  4.0469385246171477e+01  3.5301568731728381e+01  1.6777521520820073e+01  3.0041262555086114e+01  3.5164782050490317e+01  4.3943950358625521e+01  2.8052790187494640e+01  3.3436958898302692e+01  3.6826527932966535e+01  3.4627132106669137e+01  2.7894286484842468e+01  4.2345732397257649e+01  1.9575472392436623e+01  4.0533399091557726e+01  2.1814046448711764e+01  1.9711660235680334e+01  2.8922426623591317e+01  1.5306720627233130e+01  1.5972771728403373e+01  2.7453520016483179e+01  4.2767744915346483e+01  1.6029996152361527e+01  4.1976304568560678e+01  2.1387235612973360e+01  4.2247139102005271e+01  1.8261496631844029e+01  1.7952043629907642e+01  2.5346971961184945e+01  2.0998057046718419e+01  4.2862168634237520e+01  1.7328867930941676e+01  1.5555418894218320e+01  2.0254846222374237e+01  5.0344054086556618e+01  2.8090885322857829e+01  2.1049740706505727e+01  1.9012046331453032e+01  1.8541759773745778e+01  2.9774796244639923e+01  3.0122544552693828e+01  3.8314812120026900e+01  2.3899379728106116e+01  4.3239026030527860e+01  2.3683579972539771e+01  1.9193444349048075e+01  3.2247930958198054e+01  4.2486599186688451e+01  1.9327471076221606e+01  3.9486415912691911e+01  4.9218727005388892e+01  2.2187669386293006e+01  4.9302778394798068e+01  2.4006336577640958e+01  2.5850683832946878e+01  4.2469856685171777e+01  1.9032879312347138e+01  2.3083793587115348e+01  3.3347369013418572e+01  4.3682389349449764e+01  1.9994862713041922e+01  5.0831742224907174e+01  3.1516888947264846e+01  2.6003819994821214e+01  2.1157505502744549e+01  2.7954787140729088e+01  4.3063730565657472e+01  4.2431343472400897e+01  1.5331035179318528e+01  1.7158349561571899e+01  2.0582843217970588e+01  1.8870903522210746e+01  1.8700947181302773e+01  3.2050058050353542e+01  3.5565328611656710e+01  4.2648546185026731e+01  2.0593922601279907e+01  2.0227309379238292e+01  2.8322472456939842e+01  5.0330541247975653e+01  2.6923753882538694e+01  1.8025141497865324e+01  1.6941006661460765e+01  1.9480971572698852e+01  1.6233243665707157e+01  2.2312521594373596e+01  2.1321813241302333e+01  2.0254678243462948e+01  5.5399198217196783e+01  2.5161689445181853e+01  2.2764141096976541e+01  1.9496635917141280e+01  2.3543359512493563e+01  1.8623187972668607e+01  2.2744346590841626e+01  1.8343153283905231e+01  2.2153868225420418e+01  2.1653408023123276e+01  2.6891502072492365e+01  5.5923670233905106e+01  6.1854115999872462e+01  1.9603642269047672e+01  4.5652695071815728e+01  1.4790556262994526e+01  2.0743728739924862e+01  2.2189218360431642e+01  4.0801613847364116e+01  4.0495597283676098e+01  4.2643246312668495e+01  4.2195144852675703e+01  3.3543318644567158e+01  3.6125676095819230e+01  3.0187205694482273e+01  2.9823583134912866e+01  1.8825172500042491e+01  2.2617971215085554e+01  1.9680740850003218e+01  3.7566953565433380e+01  1.9068649324373798e+01  2.4447942817290443e+01  2.4912335633043980e+01  1.8459602441523288e+01  3.0546845542306759e+01  2.1451124233319462e+01  2.8847039032095772e+01  3.5925664826203885e+01  1.8292136692600039e+01  1.6001351916531792e+01  2.4096088807540781e+01  2.1704613039845302e+01  1.9777272376717352e+01  2.2342371509466407e+01  3.1761516910260259e+01  1.7294665016996685e+01  3.5102319079026984e+01  4.2531906270487298e+01  2.7714613364567921e+01  2.4833321761901225e+01  5.5125484591531766e+01  6.0093782102992265e+01  4.7092569525744111e+01  3.8671866489440028e+01  3.2780131423546564e+01  3.7429166923627726e+01  4.0406553726260540e+01  2.6470870567458967e+01  4.2754545036424339e+01  2.8078768502158592e+01  1.9818429428900021e+01  2.5959576242146937e+01  3.9453902473701234e+01  1.8479121749480147e+01  3.1425341450905265e+01  2.8804426926242371e+01  4.2400732267340629e+01  4.1541151050550909e+01  3.8721492108637044e+01  4.1432346255282035e+01  1.8285868628705497e+01  3.6413865599869602e+01  4.4424105379234277e+01  1.9167434675472254e+01  1.8145874857296192e+01  2.0803757856363774e+01  2.8671066479883187e+01  1.7761859706089432e+01  6.8149233619616780e+01  2.3305404658814215e+01  2.7173245817948871e+01  3.0322833875221498e+01  3.1699816800661477e+01  4.2611738912829516e+01  4.3937349664341376e+01  2.0850545435738116e+01  4.2331895535592494e+01  2.6903088831739030e+01  3.5263939360484017e+01  5.9768672027562531e+01  1.9917126076063987e+01  2.9710631922428320e+01  2.1128211838146942e+01  1.7515673436322878e+01  3.6957599643276701e+01  1.7085359719859653e+01  2.1724706617932696e+01  2.8189507150282953e+01  4.0904792048675695e+01  4.2168159573441969e+01  2.8981063602613080e+01  2.7110250375147960e+01  3.3237997828958513e+01  3.0720644624291342e+01  1.9323611610204232e+01  4.1423254554402483e+01  1.8840880468772657e+01  2.5262989964608426e+01  1.7633350155844482e+01  2.8337626198256835e+01  2.7487793715841111e+01  3.0729738403008913e+01  1.0332392337575770e+01  4.0934418836522596e+01  4.2141381363020692e+01  2.0803251136850164e+01  4.1466155476937708e+01  9.2608608308675624e+00  3.9249218224177746e+01  2.3475240657217771e+01  1.8927806751307774e+01  1