<?xml version="1.0"?>
<VTKFile type="UnstructuredGrid"  version="0.1"  >
<UnstructuredGrid>
<Piece  NumberOfPoints="5665" NumberOfCells="10866">
<Points>
<DataArray  type="Float64"  NumberOfComponents="3"  format="ascii">0 0 0  0.005238026502541167 0.0121532396601488 0  0.01034676844792354 0.01689976574376667 0  0.01543408867173694 0.02041904118380813 0  0.0205102348999341 0.02329815830290497 0  0.02557917784950812 0.02576459951742299 0  0.03064295500511558 0.02793509234377689 0  0.03570277759930535 0.0298790283068407 0  0.04075943555845489 0.03164166229670518 0  0.04581347820995564 0.03325446528513457 0  0.05086530608158131 0.03474038351230363 0  0.05591522204376106 0.03611676842813705 0  0.06096346185057889 0.03739712638647186 0  0.06601021339667874 0.03859222187334359 0  0.0710556294024393 0.03971080424078027 0  0.07609983607684939 0.04076010400301824 0  0.08114293921509697 0.0417461821674347 0  0.08618502860241112 0.04267418253070718 0  0.09122618126598143 0.043548517981297 0  0.09626646392312314 0.04437301075486622 0  0.1013059348559291 0.04515099983309559 0  0.1063446453685388 0.04588542443065277 0  0.1113826409352795 0.0465788897722046 0  0.1164199621162375 0.04723371954550182 0  0.1214566452953707 0.04785199818785829 0  0.1264927232814744 0.04843560531547794 0  0.1315282258019162 0.04898624400955593 0  0.1365631799116385 0.04950546424801371 0  0.1415976103345504 0.04999468246384916 0  0.1466315397504873 0.05045519798506762 0  0.1516649890379851 0.05088820694318184 0  0.1566979774809081 0.05129481411099283 0  0.1617305229453022 0.05167604303443216 0  0.1667626420315509 0.05203284474965102 0  0.171794350205927 0.05236610531956329 0  0.1768256619148477 0.05267665237956284 0  0.1818565906845366 0.05296526084712219 0  0.1868871492083055 0.05323265792221688 0  0.1919173494232881 0.05347952748335247 0  0.1969472025781407 0.05370651396615293 0  0.2019767192929772 0.0539142257970593 0  0.2070059096126012 0.05410323844296341 0  0.2120347830539274 0.05427409712801209 0  0.2170633486483511 0.05442731926092947 0  0.222091614979707 0.05456339660968747 0  0.2271195902183664 0.05468279725494146 0  0.2321472821519424 0.05478596734913288 0  0.2371746982130071 0.0548733327043778 0  0.242201845504167 0.05494530022907924 0  0.2472287308208 0.05500225923051334 0  0.2522553606717144 0.05504458259836192 0  0.2572817412979564 0.05507262788222707 0  0.2623078786899665 0.05508673827450852 0  0.2673337786032577 0.05508724350860923 0  0.2723594465727689 0.05507446068121672 0  0.2773848879260261 0.05504869500636039 0  0.2824101077952329 0.05501024050803788 0  0.2874351111283929 0.05495938065741866 0  0.2924599026995572 0.05489638895995084 0  0.2974844871182815 0.05482152949710279 0  0.3025088688383624 0.05473505742695095 0  0.3075330521659239 0.05463721944737245 0  0.3125570412669076 0.05452825422520034 0  0.317580840174022 0.0544083927943504 0  0.3226044527931976 0.05427785892561688 0  0.3276278829095894 0.05413686947056456 0  0.3326511341931652 0.05398563468169943 0  0.3376742102039154 0.05382435851088885 0  0.3426971143967122 0.05365323888780957 0  0.3477198501258504 0.05347246798003417 0  0.3527424206492914 0.05328223243621363 0  0.3577648291326367 0.05308271361368044 0  0.3627870786528491 0.0528740877916746 0  0.3678091722017434 0.05265652637128731 0  0.3728311126892615 0.05243019606312002 0  0.3778529029465496 0.0521952590635683 0  0.3828745457288512 0.05195187322056304 0  0.3878960437182294 0.05170019218952852 0  0.3929173995261309 0.0514403655802548 0  0.3979386156958011 0.05117253909532261 0  0.4029596947045647 0.05089685466066743 0  0.4079806389659755 0.05061345054882115 0  0.4130014508318492 0.05032246149532771 0  0.4180221325941841 0.05002401880878829 0  0.4230426864869778 0.04971825047495815 0  0.4280631146879479 0.04940528125528214 0  0.43308341932016 0.04908523278022921 0  0.4381036024535731 0.04875822363775598 0  0.4431236661065031 0.04842436945720797 0  0.448143612247013 0.04808378298894189 0  0.453163442794233 0.0477365741799331 0  0.4581831596196138 0.04738285024561264 0  0.4632027645481188 0.0470227157381616 0  0.4682222593593586 0.04665627261147375 0  0.4732416457886692 0.04628362028298268 0  0.4782609255281408 0.04590485569253701 0  0.4832801002275958 0.04552007335849396 0  0.4882991714955231 0.04512936543118998 0  0.4933181408999677 0.04473282174393684 0  0.49833700996938 0.04433052986168239 0  0.5033557801934271 0.04392257512746423 0  0.5083744530237669 0.04350904070677837 0  0.5133930298747884 0.04309000762997599 0  0.5184115121243186 0.04266555483279374 0  0.5234299011143 0.04223575919511792 0  0.5284481981514371 0.04180069557807491 0  0.5334664045078168 0.04136043685953591 0  0.5384845214215018 0.04091505396811783 0  0.5435025500970989 0.04046461591575749 0  0.5485204917063042 0.04000918982893143 0  0.5535383473884251 0.03954884097858998 0  0.5585561182508825 0.03908363280886933 0  0.5635738053696907 0.03861362696464198 0  0.5685914097899193 0.03813888331796304 0  0.5736089325261368 0.0376594599934653 0  0.5786263745628358 0.03717541339275407 0  0.5836437368548431 0.03668679821784964 0  0.5886610203277121 0.03619366749372188 0  0.5936782258781016 0.03569607258996044 0  0.5986953543741396 0.03519406324161968 0  0.6037124066557727 0.03468768756927747 0  0.6087293835351048 0.03417699209834292 0  0.6137462857967197 0.03366202177764776 0  0.6187631141979951 0.03314281999735318 0  0.6237798694694028 0.03261942860620303 0  0.6287965523147994 0.0320918879281518 0  0.633813163411706 0.03156023677839564 0  0.6388297034115783 0.03102451247883129 0  0.6438461729400667 0.0304847508729692 0  0.6488625725972671 0.02994098634032237 0  0.6538789029579641 0.02939325181029495 0  0.6588951645718641 0.0288415787755908 0  0.6639113579638226 0.02828599730516195 0  0.6689274836340612 0.02772653605671687 0  0.673943542058379 0.02716322228880629 0  0.6789595336883573 0.02659608187250356 0  0.6839754589515551 0.0260251393026968 0  0.6889913182517017 0.02545041770900753 0  0.6940071119688789 0.02487193886635208 0  0.699022840459701 0.0242897232051584 0  0.7040385040574866 0.02370378982125323 0  0.7090541030724258 0.02311415648543186 0  0.7140696377917422 0.02252083965272285 0  0.7190851084798485 0.02192385447136002 0  0.7241005153784998 0.02132321479147222 0  0.7291158587069391 0.0207189331735022 0  0.7341311386620403 0.02011102089636457 0  0.7391463554184465 0.01949948796535284 0  0.7441615091287034 0.01888434311980471 0  0.7491765999233887 0.01826559384053462 0  0.7541916279112387 0.01764324635704245 0  0.7592065931792701 0.01701730565450599 0  0.7642214957928977 0.01638777548056568 0  0.769236335796051 0.01575465835190849 0  0.7742511132112837 0.01511795556065875 0  0.7792658280398836 0.01447766718058234 0  0.7842804802619768 0.01383379207311114 0  0.7892950698366302 0.01318632789319397 0  0.7943095967019511 0.01253527109497995 0  0.7993240607751827 0.0118806169373405 0  0.8043384619527985 0.01122235948923519 0  0.8093528001105926 0.01056049163492655 0  0.8143670751037693 0.009895005079050124 0  0.8193812867670283 0.009225890351543078 0  0.8243954349146481 0.008553136812437526 0  0.8294095193405684 0.007876732656522251 0  0.8344235398184682 0.007196664917877517 0  0.8394374961018436 0.006512919474287168 0  0.8444513879240824 0.005825481051532076 0  0.849465214998537 0.005134333227568549 0  0.8544789770185954 0.004439458436595978 0  0.8594926736577505 0.003740837973016517 0  0.8645063045696671 0.003038451995291146 0  0.8695198693882481 0.002332279529694675 0  0.8745333677276973 0.001622298473973488 0  0.8795467991825824 0.0009084856009084902 0  0.8845601633278956 0.0001908165617869224 0  0.8895734597191119 -0.0005307341102147537 0  0.8945866878922478 -0.001256192996733687 0  0.8995998473639164 -0.001985587791006797 0  0.9046129376313824 -0.002718947294737539 0  0.9096259581726157 -0.003456301415040958 0  0.9146389084463429 -0.004197681161464576 0  0.9196517878920988 -0.004943118643082908 0  0.9246645959302748 -0.005692647065663109 0  0.9296773319621684 -0.006446300728900088 0  0.9346899953700288 -0.007204115023718713 0  0.9397025855171041 -0.007966126429641011 0  0.9447151017476861 -0.008732372512217155 0  0.949727543387153 -0.009502891920517193 0  0.9547399097420136 -0.01027772438468268 0  0.9597522000999473 -0.01105691071353667 0  0.9647644137298468 -0.0118404927922493 0  0.9697765498818562 -0.01262851358005819 0  0.9747886077874109 -0.01342101710804232 0  0.9798005866592752 -0.01421804847694689 0  0.9848124856915792 -0.0150196538550587 0  0.9898243040598554 -0.01582588047613009 0  0.9948360409210739 -0.0166367766373504 0  0.9998476954136774 -0.01745239169736331 0  0.9948106293493593 -0.01809260583579465 0  0.9897736456536567 -0.01872810107543342 0  0.9847367434650114 -0.01935892677492327 0  0.9796999219403941 -0.01998513123145354 0  0.9746631802553368 -0.02060676167877656 0  0.9696265176039702 -0.02122386428517915 0  0.9645899331990582 -0.02183648415140651 0  0.9595534262720363 -0.02244466530853759 0  0.9545169960730487 -0.02304845071581004 0  0.9494806418709878 -0.02364788225839399 0  0.9444443629535334 -0.02424300074511249 0  0.939408158627194 -0.02483384590610709 0  0.9343720282173481 -0.02542045639044785 0  0.929335971068287 -0.02600286976368493 0  0.9242999865432591 -0.02658112250534037 0  0.9192640740245138 -0.02715525000633903 0  0.9142282329133482 -0.02772528656637582 0  0.9091924626301543 -0.0282912653912179 0  0.9041567626144661 -0.02885321858993978 0  0.8991211323250108 -0.02941117717208898 0  0.8940855712397578 -0.02996517104478055 0  0.8890500788559724 -0.03051522900971794 0  0.8840146546902675 -0.03106137876013807 0  0.8789792982786592 -0.0316036468776781 0  0.873944009176623 -0.03214205882916156 0  0.8689087869591506 -0.0326766389633012 0  0.8638736312208103 -0.03320741050731613 0  0.8588385415758056 -0.03373439556345997 0  0.8538035176580394 -0.03425761510545788 0  0.8487685591211763 -0.03477708897484892 0  0.8437336656387094 -0.0352928358772309 0  0.8386988369040269 -0.03580487337840445 0  0.833664072630481 -0
[...]
<PointData  Scalars="u"> 
<DataArray  type="Float64"  Name="u"  format="ascii">5.6668660066209689e+01  5.4502645659594286e+01  5.2437358468064460e+01  5.0514993092593528e+01  4.8725122072705851e+01  4.7006778177093999e+01  4.5385626632428796e+01  4.3830789490462848e+01  4.2342558358210475e+01  4.0921837618447654e+01  3.9560112007507499e+01  3.8255241901901123e+01  3.7003341236381161e+01  3.5801824659658351e+01  3.4647332776954698e+01  3.3537052848568997e+01  3.2469775068891408e+01  3.1443257855219969e+01  3.0455193894062305e+01  2.9506675439378697e+01  2.8593617629615729e+01  2.7716339441727747e+01  2.6870590837179840e+01  2.6057345162654229e+01  2.5272250740988753e+01  2.4518073606129622e+01  2.3789859039648807e+01  2.3086330830572333e+01  2.2410358330481589e+01  2.1759792452445687e+01  2.1130911035060073e+01  2.0526489562906395e+01  1.9941909432870577e+01  1.9377584946048561e+01  1.8835271408061320e+01  1.8310659992731331e+01  1.7806772787803300e+01  1.7318771037135505e+01  1.6846350190361637e+01  1.6392975270349542e+01  1.5956053837351327e+01  1.5532037085749085e+01  1.5123493686019728e+01  1.4726423856422763e+01  1.4346845515987756e+01  1.3978613887892662e+01  1.3624624276399974e+01  1.3281141537246061e+01  1.2947785804348701e+01  1.2628269290254130e+01  1.2320314390625800e+01  1.2020780468311022e+01  1.1733089012971325e+01  1.1451855729298654e+01  1.1180319480137252e+01  1.0920486625787618e+01  1.0667856160981810e+01  1.0422777308401653e+01  1.0188053347226658e+01  9.9618108782212698e+00  9.7407282623784681e+00  9.5293657535293050e+00  9.3235766545580372e+00  9.1232699630339003e+00  8.9315257664491590e+00  8.7443334910224841e+00  8.5649687527112341e+00  8.3896033932551468e+00  8.2208608301584434e+00  8.0600089633049485e+00  7.9029725781290168e+00  7.7504865623287182e+00  7.6037951683562541e+00  7.4606449480404837e+00  7.3201777674695565e+00  7.1870858637835680e+00  7.0591033355686479e+00  6.9341879927797265e+00  6.8145169160627272e+00  6.6972322973099816e+00  6.5823696029619407e+00  6.4722506107848305e+00  6.3669054978428248e+00  6.2627420499520481e+00  6.1615900970626463e+00  6.0653709778524822e+00  5.9734416950353202e+00  5.8825971798362628e+00  5.7965275833727583e+00  5.7115908014486250e+00  5.6306218777460364e+00  5.5519971629289007e+00  5.4761701476777764e+00  5.4028939628251642e+00  5.3310962128021364e+00  5.2620611989713399e+00  5.1940121496265412e+00  5.1299583228682604e+00  5.0662648286605041e+00  5.0062280140060338e+00  4.9462212206810046e+00  4.8901119320394937e+00  4.8338454450325052e+00  4.7813175793064380e+00  4.7292392443906852e+00  4.6805140738157602e+00  4.6315075970907742e+00  4.5851402256289946e+00  4.5376743932597368e+00  4.4942792982422048e+00  4.4516698933774128e+00  4.4124034170186324e+00  4.3738314781042904e+00  4.3360932110467525e+00  4.2991018304303434e+00  4.2634075089454990e+00  4.2274685555879010e+00  4.1943990835642140e+00  4.1633107396718882e+00  4.1320585219763384e+00  4.1029255734399337e+00  4.0728885341610610e+00  4.0449854439506243e+00  4.0161324621910888e+00  3.9899350197281493e+00  3.9630934019427757e+00  3.9386849008315634e+00  3.9134660479574772e+00  3.8904210109865365e+00  3.8686012546729662e+00  3.8460078803962441e+00  3.8258329169893166e+00  3.8050511697325624e+00  3.7830594264587387e+00  3.7629704211941770e+00  3.7447609063985654e+00  3.7255431271763269e+00  3.7059240010890790e+00  3.6891869285905434e+00  3.6723606508975513e+00  3.6552358080479030e+00  3.6394040886718400e+00  3.6229493407029274e+00  3.6077289146621139e+00  3.5913922704569341e+00  3.5754640319732895e+00  3.5591880587218574e+00  3.5444378777852705e+00  3.5278745866186698e+00  3.5130941578713708e+00  3.4971495110418096e+00  3.4826621011111087e+00  3.4662757694699269e+00  3.4509720754411406e+00  3.4329680217138909e+00  3.4168680905712105e+00  3.4015950186107373e+00  3.3849377933497133e+00  3.3685520539964244e+00  3.3500583045694352e+00  3.3294451288052973e+00  3.3103586792894553e+00  3.2901521578222046e+00  3.2687690110504235e+00  3.2454528436532710e+00  3.2225570969206774e+00  3.1968485201786154e+00  3.1713936544018044e+00  3.1432676425779200e+00  3.1150859675053928e+00  3.0837204044542492e+00  3.0509300233757082e+00  3.0160525879295674e+00  2.9797939853221993e+00  2.9393106810204706e+00  2.8978818110840243e+00  2.8523204786306642e+00  2.8055629324876308e+00  2.7547405549286608e+00  2.6988790380746197e+00  2.6409416135882933e+00  2.5801736569502682e+00  2.5138247529417925e+00  2.4442046572976790e+00  2.3681511467872141e+00  2.2869007995663968e+00  2.2022069645993740e+00  2.1104164725527501e+00  2.0147571819492351e+00  1.9109535769514960e+00  1.8016918034327605e+00  1.6866332581695416e+00  1.5640560270508290e+00  1.4358331362673424e+00  1.2997292855444122e+00  1.1585800856193893e+00  1.0103680740498906e+00  8.6181562097340469e-01  7.1358235446838070e-01  5.9230221158646901e-01  8.5314212775812892e-01  1.0733392918891174e+00  1.2741729863215407e+00  1.4624013182246354e+00  1.6393925596490657e+00  1.8063223821985135e+00  1.9645375683222459e+00  2.1118507755949762e+00  2.2497019903503839e+00  2.3798874319883221e+00  2.5015431274196192e+00  2.6174262256710765e+00  2.7279308973384486e+00  2.8304472930786302e+00  2.9258827938692034e+00  3.0163547026678859e+00  3.1016340640420674e+00  3.1842075551368012e+00  3.2629648320860531e+00  3.3348551068205565e+00  3.4027826152398766e+00  3.4668386791189323e+00  3.5275503949272213e+00  3.5867645984796130e+00  3.6452634807446862e+00  3.6983434020204777e+00  3.7487416002716056e+00  3.7966489965364021e+00  3.8442367422968560e+00  3.8903641968000580e+00  3.9329105806354208e+00  3.9749790461783703e+00  4.0143599838786415e+00  4.0535638681801540e+00  4.0902524341709103e+00  4.1267414498234576e+00  4.1643816501296049e+00  4.1987221604893294e+00  4.2330330786520980e+00  4.2652942889298160e+00  4.2985069310345452e+00  4.3293693296209739e+00  4.3601128602732979e+00  4.3904852909576526e+00  4.4220454458401379e+00  4.4535653003224969e+00  4.4848069088467506e+00  4.5150970614032042e+00  4.5443662721797242e+00  4.5758651470385816e+00  4.6053953903598872e+00  4.6362915558906952e+00  4.6683589926425828e+00  4.6998048694865453e+00  4.7296139782468218e+00  4.7611820270623513e+00  4.7942190838000176e+00  4.8257815258262928e+00  4.8563887242323096e+00  4.8889092359890185e+00  4.9204068665895591e+00  4.9536033012396148e+00  4.9896314446598344e+00  5.0243587823987017e+00  5.0585869532544017e+00  5.0945897998532006e+00  5.1294686616796739e+00  5.1660410835482757e+00  5.2052596062563348e+00  5.2439244082172785e+00  5.2819348869410421e+00  5.3209054567529996e+00  5.3606232987596023e+00  5.4019701013793080e+00  5.4457097374442363e+00  5.4899578417233972e+00  5.5333833166239907e+00  5.5793689346955935e+00  5.6244478712580150e+00  5.6716766454713170e+00  5.7222427508171378e+00  5.7729016147031835e+00  5.8229340099881508e+00  5.8754565817375592e+00  5.9306046104344725e+00  5.9844793956465914e+00  6.0395824849722732e+00  6.0951091876470986e+00  6.1547542923846477e+00  6.2173453321038821e+00  6.2807491403663454e+00  6.3454108353737020e+00  6.4100338411046742e+00  6.4777976237865005e+00  6.5456453212700243e+00  6.6164564155874421e+00  6.6875996032960847e+00  6.7621462459737307e+00  6.8379008562083472e+00  6.9185108255120191e+00  6.9995075727071896e+00  7.0815536118051838e+00  7.1671886398948716e+00  7.2532968058172393e+00  7.3426151577118244e+00  7.4363735250482197e+00  7.5313730609055645e+00  7.6277035385391612e+00  7.7281571894721850e+00  7.8303458069443348e+00  7.9356183106173539e+00  8.0457818488782937e+00  8.1569059000488409e+00  8.2723315808406586e+00  8.3894349753503157e+00  8.5115988765322292e+00  8.6354224974420788e+00  8.7628466660501285e+00  8.8937676375698729e+00  9.0296343584380860e+00  9.1701365679969129e+00  9.3163133866456178e+00  9.4656226323047381e+00  9.6160673506482528e+00  9.7722203103976213e+00  9.9327470472824402e+00  1.0101773853138079e+01  1.0273255694398820e+01  1.0448460517959170e+01  1.0630578645283423e+01  1.0818497272805759e+01  1.1010140006297974e+01  1.1209299634720354e+01  1.1415316343754490e+01  1.1625428518317534e+01  1.1841268257964963e+01  1.2065526123089064e+01  1.2297021614391973e+01  1.2534096746245966e+01  1.2779785251356110e+01  1.3032114264044306e+01  1.3294414193077337e+01  1.3562936947456828e+01  1.3841959347718273e+01  1.4127642476985315e+01  1.4423207314077255e+01  1.4726706283207784e+01  1.5041614662343754e+01  1.5365064773056437e+01  1.5698836625999490e+01  1.6042864340539982e+01  1.6401325572078477e+01  1.6768679784606707e+01  1.7147918895496915e+01  1.7538034662570535e+01  1.7942067271973762e+01  1.8359244415021912e+01  1.8788846458475270e+01  1.9232272145477364e+01  1.9691352030940106e+01  2.0164918725401641e+01  2.0657102948143741e+01  2.1163971449510207e+01  2.1688823697642036e+01  2.2229599524370073e+01  2.2790126522831912e+01  2.3367764693153443e+01  2.3966723280162633e+01  2.4585036141899398e+01  2.5225578780591714e+01  2.5889952719135533e+01  2.6574435517341140e+01  2.7281649026148980e+01  2.8012512074437151e+01  2.8770523017188758e+01  2.9553962672989790e+01  3.0363400811499915e+01  3.1202453472350495e+01  3.2069796368528976e+01  3.2969336276585537e+01  3.3899043330004076e+01  3.4862099851125954e+01  3.5858291350586917e+01  3.6886975963848478e+01  3.7952382980720650e+01  3.9056159218501300e+01  4.0199291030737747e+01  4.1384321943264084e+01  4.2609656437320275e+01  4.3879689809968696e+01  4.5191149128655596e+01  4.6550836985024503e+01  4.7952573678049099e+01  4.9402938942989124e+01  5.0887162965778082e+01  5.2426921127399396e+01  5.4002979206275455e+01  5.5586987943779029e+01  2.4440258015794438e+01  0.0000000000000000e+00  0.0000000000000000e+00  0.0000000000000000e+00  5.5959856196329298e+01  5.6534914649470117e+01  2.4417096239731357e+01  2.4353835384901927e+01  2.4308769367806867e+01  2.4220199047113049e+01  2.4164088837610834e+01  2.3821935936990226e+01  2.3777234347304095e+01  2.3432931901496278e+01  2.3289735043621615e+01  2.2981927353281478e+01  2.2743680590516973e+01  2.2102697342012867e+01  2.1801599237301257e+01  1.8776305659827852e+01  2.7177842567825660e+01  0.0000000000000000e+00  0.0000000000000000e+00  0.0000000000000000e+00  0.0000000000000000e+00  0.0000000000000000e+00  0.0000000000000000e+00  0.0000000000000000e+00  0.0000000000000000e+00  0.0000000000000000e+00  0.0000000000000000e+00  0.0000000000000000e+00  0.0000000000000000e+00  0.0000000000000000e+00  0.0000000000000000e+00  0.0000000000000000e+00  0.0000000000000000e+00  0.0000000000000000e+00  0.0000000000000000e+00  0.0000000000000000e+00  0.0000000000000000e+00  0.0000000000000000e+00  0.0000000000000000e+00  0.0000000000000000e+00  0.0000000000000000e+00  0.0000000000000000e+00  0.0000000000000000e+00  0.0000000000000000e+00  0.0000000000000000e+00  0.0000000000000000e+00  0.0000000000000000e+00  1.9433547922468279e+01  2.1401561554701118e+01  2.1387662072375218e+01  2.1364602858170848e+01  2.2594568658764512e+01  2.2604973397727473e+01  2.3233305205553478e+01  2.3260863980297430e+01  2.3786040223962956e+01  2.3817217305132608e+01  2.4091353437785838e+01  2.4165567849693200e+01  2.4318780666445750e+01  2.4340510488741469e+01  2.4407162422521534e+01  2.3522566461990909e+01  2.0834447121866994e+01  2.5523982522882967e+01  2.4323444773839061e+01  2.1143226110790984e+01  2.3681417016907996e+01  1.9612506650507619e+01  2.6522384484183419e+01  2.2682253147125358e+01  2.2803554787779099e+01  2.7897160788827186e+01  1.6032316744287378e+01  1.6965676478167129e+01  1.9652902631271829e+01  2.9639334784864932e+01  1.0251437748114684e+01  8.1970362718787406e+00  1.3006182182124864e+01  2.7905293958538589e+01  2.5998802781802702e+01  1.9665520703823390e+01  7.0822841215491472e+00  5.2922869920078357e+00  2.3050743582761907e+01  1.4285434192854144e+01  3.1104944673184438e+01  1.6260157201851040e+01  2.8560952006213437e+01  8.9624155469868256e+00  6.9321119191915033e+00  1.7225096692918786e+01  2.0322624439864601e+01  4.7463062167240313e+00  1.0151853614418698e+01  1.8813681625651405e+01  8.6381228336690548e+00  1.2619435598615116e+01  3.4235013287725053e+01  4.3370243135899379e+01  6.6316339470742545e+00  5.2079435112461727e+00  5.8521617726852710e+00  4.7150586556555387e+00  3.9434936000985608e+00  3.3855700507494348e+00  3.0737873265190647e+01  7.3595160033990918e+00  1.0103834664691847e+01  1.5496661338586572e+01  2.4302505244110595e+01  1.9035228402465549e+01  2.9315567825747852e+01  4.3744596333364374e+00  2.6131521452638249e+00  1.1396826126324793e+01  6.5608321593486103e+00  8.6459407740589462e+00  1.7841798195655276e+01  5.1002099362196036e+00  4.3047794891313224e+01  5.5883154167740745e+00  4.2611178428804530e+00  2.4822964472899123e+01  4.5769491433596805e+00  3.4095898511872771e+00  4.1651221733948248e+01  4.9904903653299634e+01  4.0989562039492897e+00  3.7992487243018034e+00  1.0815365156440075e+01  1.7127752856661523e+01  7.9754198274149042e+00  6.0518457227998192e+00  1.7284389023723719e+01  1.4116008172204305e+01  9.2922400579326503e+00  1.1830508270195939e+01  6.6824659169781899e+00  3.5304655727073467e+01  1.4987990110162899e+01  1.9713472337649460e+01  5.3748299405535906e+00  3.5431310670324021e+00  3.2787062173236294e+00  2.8076347421394243e+00  2.4760008153173558e+00  4.9657325612430308e+00  4.5575335373985881e+00  4.7268599299707894e+00  4.6495317606021032e+01  2.5778636562024918e+01  2.0979347813401983e+00  1.8056613778429206e+01  2.4505780069773245e+01  6.9302258314456733e+00  1.4132208319422015e+00  2.2690452526354637e+01  1.3693734658963338e+01  3.1669196412350122e+01  5.7673044629280268e+00  4.0347604800548503e+01  7.8426964169643893e+00  9.1854892306356533e+00  7.1390879278752886e+00  4.1852172902593558e+00  3.7437314930900025e+00  1.0676741020340030e+01  5.4989734849581993e+00  5.1490181912291328e+00  7.1752362127507592e+00  8.0409659830829021e+00  4.1205867858217387e+00  1.0169335207696431e+01  3.1685124286735590e+01  2.4215349824739530e+01  1.1945534617764512e+01  3.2159099698252270e+01  4.1462246916361870e+01  4.9429998538111377e+01  4.3465753328058163e+00  1.8935718401392943e+01  3.3354633819749777e+00  3.8084729741220698e+00  3.2050927289449485e+00  2.3609601366225559e+00  1.6257628349972698e+01  2.1404611046926611e+01  5.2999410234260296e+01  2.5668443543697823e+01  1.1349547121523878e+01  1.2848329562333570e+01  3.5711284344649239e+00  2.0615649952728607e+01  6.1019356606083326e+00  2.4713459215250282e+01  2.2648210249872065e+01  1.1878917257164405e+01  6.1653063110284476e+00  2.9967495197663587e+00  3.9127837423201859e+00  5.6913236870701356e+00  3.6551100886137871e+00  4.6623954788149362e+00  1.6548972730799530e+01  4.8893334440534844e+00  5.2164941881069939e+00  2.1921455747488849e+01  1.0283412643152097e+01  1.2193303234987830e+01  4.8973445610612938e+00  8.6237177249430506e+00  3.5756083996632193e+00  5.4779428291471007e+01  1.5022338432069974e+01  2.4470263965337441e+01  1.4436033977951000e+01  2.2832888963017826e+01  4.8536308795697757e+01  2.5327173164071340e+01  2.0380377319396928e+01  2.3574426066632297e+00  1.5237988220090685e+01  2.0379629434095534e+01  2.8114818008213952e+01  1.8563697277677765e+01  1.8772706658291234e+01  2.2176574602696892e+01  1.9518016993414292e+01  1.2822185040840337e+01  2.4154691312264884e+01  4.8731725234942918e+00  2.5903054377583349e+01  7.0001483484182634e+00  5.1212293141087111e+00  1.4665860496796221e+01  1.4477392691695792e+00  2.0037009760056912e+00  1.1986047084606918e+01  2.4778503909469414e+01  1.1513782707578779e+01  2.3140668056454150e+01  6.6686499081617665e+00  2.7512644106686267e+01  3.4076845827566213e+00  3.1847943818066136e+00  1.0045478373619090e+01  6.1810512708626577e+00  2.5482422859519883e+01  2.7452428518864074e+00  1.4833433889180034e+00  5.5260294666940126e+00  3.5416313070839429e+01  1.3276963508764423e+01  6.3180533375480836e+00  4.3164592049806609e+00  3.9371258892314782e+00  1.4615396122182341e+01  1.5614417734082274e+01  2.3543621523927104e+01  9.2084621345703876e+00  2.6457355389635200e+01  8.3692018987516548e+00  4.4655738016617059e+00  1.9294521996896691e+01  2.5145046640916206e+01  4.4532043811661426e+00  1.8869329334463998e+01  3.4427000935532881e+01  7.4820754383952446e+00  3.4297865986176440e+01  1.6030635387773916e+01  1.0874695701967264e+01  2.5780818432606043e+01  4.1390441187874218e+00  8.2703150087478274e+00  1.8368451172795154e+01  2.9069249287181599e+01  5.2331480457207826e+00  3.6182215380116283e+01  1.7158250090410700e+01  1.0765163420789323e+01  6.5474719802591768e+00  1.8248279225519774e+01  2.3414790916673667e+01  2.2221911575384393e+01  1.4430038496307638e+00  2.8629320417914084e+00  5.7504898394205872e+00  3.9659450563398542e+00  3.7869989854786108e+00  1.7246207216573278e+01  2.1092647580916644e+01  2.4618674588325405e+01  5.8464764948461809e+00  5.4677320005679597e+00  1.3738714066708638e+01  3.5772126556911722e+01  1.2223039343320998e+01  3.5314671900235961e+00  2.7013402173198147e+00  4.6115554005072612e+00  1.9614620789987551e+00  7.4969986455635471e+00  6.4987025891472703e+00  5.4133626488465225e+00  4.0685711335863481e+01  1.0474795956672040e+01  8.0638222140792308e+00  4.7409538097154682e+00  8.9878711783466461e+00  3.7078399310866610e+00  7.5581674035810584e+00  3.4616619253331398e+00  7.4725603107587535e+00  6.9347975111905296e+00  1.2033954157071417e+01  4.1322398660514601e+01  4.7331977012447950e+01  4.8089253103999363e+00  3.0947129989950909e+01  9.4036550330944690e-01  6.1273734418579329e+00  7.3326028138466484e+00  2.3570865339198189e+01  2.3529345019639980e+01  2.4531409374681111e+01  2.5964881266416374e+01  1.8838202563431548e+01  2.1035503505196740e+01  1.9117947938501533e+01  1.4505947933970861e+01  4.1549324587668757e+00  8.0445222192354269e+00  4.9139284400677452e+00  2.2101517468579214e+01  4.2854690963608828e+00  9.7576105424391102e+00  1.0230859052818760e+01  3.7544900246867234e+00  1.9423833748102560e+01  1.4407125726171550e+01  1.8167928711428026e+01  2.1021480340518170e+01  3.7319519843498385e+00  1.9750814282042299e+00  9.2800493670659083e+00  7.0108825799767205e+00  5.0126143950321129e+00  7.6071781476936078e+00  1.6955567895001789e+01  2.8497569471061728e+00  2.0835702097487768e+01  2.4429668546615492e+01  1.2452773862394428e+01  1.0106255112939277e+01  4.0598826978752548e+01  4.5603317785965075e+01  3.2504083130968581e+01  2.2630546622124214e+01  1.7585888419288210e+01  2.1770270155903454e+01  2.4405581811570190e+01  1.1786171487875373e+01  2.4373734391834176e+01  1.7534619539072128e+01  4.9642492752454137e+00  1.1141728056646135e+01  2.3715437293031844e+01  3.5721954018326336e+00  1.8919261593462398e+01  1.8008499421751864e+01  2.4497194621782061e+01  2.1872523212777359e+01  2.4015923542376719e+01  2.6670637307663725e+01  3.5132347198592506e+00  2.1626017400077117e+01  2.8421154397517974e+01  4.2782979187602912e+00  3.3144847635926680e+00  6.0607953226788585e+00  1.5630874051721159e+01  3.0431139342457518e+00  5.3736625588744161e+01  8.3458575230318441e+00  1.2609723911971178e+01  1.5643098287998880e+01  1.7022428127443177e+01  2.3898569358768803e+01  2.8930297822496104e+01  6.1090258527109063e+00  2.5459502361973772e+01  1.7013791718226855e+01  2.0596904066883091e+01  4.5020176536889885e+01  5.1363223700005438e+00  1.4984851626112350e+01  1.4434993941918837e+01  2.8704112540874367e+00  2.1799997939975555e+01  2.5663689418629980e+00  6.6095742167694480e+00  1.3504578641676000e+01  2.5412285758043335e+01  2.3906289184620512e+01  1.4163084769700255e+01  1.2291625836037463e+01  1.8433378818408251e+01  1.5907486335675481e+01  4.5768430883762665e+00  2.4923769670700580e+01  3.9963395693842543e+00  1.0647730697250708e+01  3.2270497213489717e+00  1.7616160412244067e+01  1.2377019783777454e+01  1.5698790094061106e+01  7.5751055677891399e+00  2.2370133176848075e+01  2.7170707452515202e+01  5.9705599258239790e+00  2.3569434546064020e+01  6.7229225888742761e+00  2.4242513785142229e+01  8.7761913372012188e+00  4.0240024924659528e+00  3