<?xml version="1.0"?>
<VTKFile type="UnstructuredGrid"  version="0.1"  >
<UnstructuredGrid>
<Piece  NumberOfPoints="5665" NumberOfCells="10866">
<Points>
<DataArray  type="Float64"  NumberOfComponents="3"  format="ascii">0 0 0  0.005238026502541167 0.0121532396601488 0  0.01034676844792354 0.01689976574376667 0  0.01543408867173694 0.02041904118380813 0  0.0205102348999341 0.02329815830290497 0  0.02557917784950812 0.02576459951742299 0  0.03064295500511558 0.02793509234377689 0  0.03570277759930535 0.0298790283068407 0  0.04075943555845489 0.03164166229670518 0  0.04581347820995564 0.03325446528513457 0  0.05086530608158131 0.03474038351230363 0  0.05591522204376106 0.03611676842813705 0  0.06096346185057889 0.03739712638647186 0  0.06601021339667874 0.03859222187334359 0  0.0710556294024393 0.03971080424078027 0  0.07609983607684939 0.04076010400301824 0  0.08114293921509697 0.0417461821674347 0  0.08618502860241112 0.04267418253070718 0  0.09122618126598143 0.043548517981297 0  0.09626646392312314 0.04437301075486622 0  0.1013059348559291 0.04515099983309559 0  0.1063446453685388 0.04588542443065277 0  0.1113826409352795 0.0465788897722046 0  0.1164199621162375 0.04723371954550182 0  0.1214566452953707 0.04785199818785829 0  0.1264927232814744 0.04843560531547794 0  0.1315282258019162 0.04898624400955593 0  0.1365631799116385 0.04950546424801371 0  0.1415976103345504 0.04999468246384916 0  0.1466315397504873 0.05045519798506762 0  0.1516649890379851 0.05088820694318184 0  0.1566979774809081 0.05129481411099283 0  0.1617305229453022 0.05167604303443216 0  0.1667626420315509 0.05203284474965102 0  0.171794350205927 0.05236610531956329 0  0.1768256619148477 0.05267665237956284 0  0.1818565906845366 0.05296526084712219 0  0.1868871492083055 0.05323265792221688 0  0.1919173494232881 0.05347952748335247 0  0.1969472025781407 0.05370651396615293 0  0.2019767192929772 0.0539142257970593 0  0.2070059096126012 0.05410323844296341 0  0.2120347830539274 0.05427409712801209 0  0.2170633486483511 0.05442731926092947 0  0.222091614979707 0.05456339660968747 0  0.2271195902183664 0.05468279725494146 0  0.2321472821519424 0.05478596734913288 0  0.2371746982130071 0.0548733327043778 0  0.242201845504167 0.05494530022907924 0  0.2472287308208 0.05500225923051334 0  0.2522553606717144 0.05504458259836192 0  0.2572817412979564 0.05507262788222707 0  0.2623078786899665 0.05508673827450852 0  0.2673337786032577 0.05508724350860923 0  0.2723594465727689 0.05507446068121672 0  0.2773848879260261 0.05504869500636039 0  0.2824101077952329 0.05501024050803788 0  0.2874351111283929 0.05495938065741866 0  0.2924599026995572 0.05489638895995084 0  0.2974844871182815 0.05482152949710279 0  0.3025088688383624 0.05473505742695095 0  0.3075330521659239 0.05463721944737245 0  0.3125570412669076 0.05452825422520034 0  0.317580840174022 0.0544083927943504 0  0.3226044527931976 0.05427785892561688 0  0.3276278829095894 0.05413686947056456 0  0.3326511341931652 0.05398563468169943 0  0.3376742102039154 0.05382435851088885 0  0.3426971143967122 0.05365323888780957 0  0.3477198501258504 0.05347246798003417 0  0.3527424206492914 0.05328223243621363 0  0.3577648291326367 0.05308271361368044 0  0.3627870786528491 0.0528740877916746 0  0.3678091722017434 0.05265652637128731 0  0.3728311126892615 0.05243019606312002 0  0.3778529029465496 0.0521952590635683 0  0.3828745457288512 0.05195187322056304 0  0.3878960437182294 0.05170019218952852 0  0.3929173995261309 0.0514403655802548 0  0.3979386156958011 0.05117253909532261 0  0.4029596947045647 0.05089685466066743 0  0.4079806389659755 0.05061345054882115 0  0.4130014508318492 0.05032246149532771 0  0.4180221325941841 0.05002401880878829 0  0.4230426864869778 0.04971825047495815 0  0.4280631146879479 0.04940528125528214 0  0.43308341932016 0.04908523278022921 0  0.4381036024535731 0.04875822363775598 0  0.4431236661065031 0.04842436945720797 0  0.448143612247013 0.04808378298894189 0  0.453163442794233 0.0477365741799331 0  0.4581831596196138 0.04738285024561264 0  0.4632027645481188 0.0470227157381616 0  0.4682222593593586 0.04665627261147375 0  0.4732416457886692 0.04628362028298268 0  0.4782609255281408 0.04590485569253701 0  0.4832801002275958 0.04552007335849396 0  0.4882991714955231 0.04512936543118998 0  0.4933181408999677 0.04473282174393684 0  0.49833700996938 0.04433052986168239 0  0.5033557801934271 0.04392257512746423 0  0.5083744530237669 0.04350904070677837 0  0.5133930298747884 0.04309000762997599 0  0.5184115121243186 0.04266555483279374 0  0.5234299011143 0.04223575919511792 0  0.5284481981514371 0.04180069557807491 0  0.5334664045078168 0.04136043685953591 0  0.5384845214215018 0.04091505396811783 0  0.5435025500970989 0.04046461591575749 0  0.5485204917063042 0.04000918982893143 0  0.5535383473884251 0.03954884097858998 0  0.5585561182508825 0.03908363280886933 0  0.5635738053696907 0.03861362696464198 0  0.5685914097899193 0.03813888331796304 0  0.5736089325261368 0.0376594599934653 0  0.5786263745628358 0.03717541339275407 0  0.5836437368548431 0.03668679821784964 0  0.5886610203277121 0.03619366749372188 0  0.5936782258781016 0.03569607258996044 0  0.5986953543741396 0.03519406324161968 0  0.6037124066557727 0.03468768756927747 0  0.6087293835351048 0.03417699209834292 0  0.6137462857967197 0.03366202177764776 0  0.6187631141979951 0.03314281999735318 0  0.6237798694694028 0.03261942860620303 0  0.6287965523147994 0.0320918879281518 0  0.633813163411706 0.03156023677839564 0  0.6388297034115783 0.03102451247883129 0  0.6438461729400667 0.0304847508729692 0  0.6488625725972671 0.02994098634032237 0  0.6538789029579641 0.02939325181029495 0  0.6588951645718641 0.0288415787755908 0  0.6639113579638226 0.02828599730516195 0  0.6689274836340612 0.02772653605671687 0  0.673943542058379 0.02716322228880629 0  0.6789595336883573 0.02659608187250356 0  0.6839754589515551 0.0260251393026968 0  0.6889913182517017 0.02545041770900753 0  0.6940071119688789 0.02487193886635208 0  0.699022840459701 0.0242897232051584 0  0.7040385040574866 0.02370378982125323 0  0.7090541030724258 0.02311415648543186 0  0.7140696377917422 0.02252083965272285 0  0.7190851084798485 0.02192385447136002 0  0.7241005153784998 0.02132321479147222 0  0.7291158587069391 0.0207189331735022 0  0.7341311386620403 0.02011102089636457 0  0.7391463554184465 0.01949948796535284 0  0.7441615091287034 0.01888434311980471 0  0.7491765999233887 0.01826559384053462 0  0.7541916279112387 0.01764324635704245 0  0.7592065931792701 0.01701730565450599 0  0.7642214957928977 0.01638777548056568 0  0.769236335796051 0.01575465835190849 0  0.7742511132112837 0.01511795556065875 0  0.7792658280398836 0.01447766718058234 0  0.7842804802619768 0.01383379207311114 0  0.7892950698366302 0.01318632789319397 0  0.7943095967019511 0.01253527109497995 0  0.7993240607751827 0.0118806169373405 0  0.8043384619527985 0.01122235948923519 0  0.8093528001105926 0.01056049163492655 0  0.8143670751037693 0.009895005079050124 0  0.8193812867670283 0.009225890351543078 0  0.8243954349146481 0.008553136812437526 0  0.8294095193405684 0.007876732656522251 0  0.8344235398184682 0.007196664917877517 0  0.8394374961018436 0.006512919474287168 0  0.8444513879240824 0.005825481051532076 0  0.849465214998537 0.005134333227568549 0  0.8544789770185954 0.004439458436595978 0  0.8594926736577505 0.003740837973016517 0  0.8645063045696671 0.003038451995291146 0  0.8695198693882481 0.002332279529694675 0  0.8745333677276973 0.001622298473973488 0  0.8795467991825824 0.0009084856009084902 0  0.8845601633278956 0.0001908165617869224 0  0.8895734597191119 -0.0005307341102147537 0  0.8945866878922478 -0.001256192996733687 0  0.8995998473639164 -0.001985587791006797 0  0.9046129376313824 -0.002718947294737539 0  0.9096259581726157 -0.003456301415040958 0  0.9146389084463429 -0.004197681161464576 0  0.9196517878920988 -0.004943118643082908 0  0.9246645959302748 -0.005692647065663109 0  0.9296773319621684 -0.006446300728900088 0  0.9346899953700288 -0.007204115023718713 0  0.9397025855171041 -0.007966126429641011 0  0.9447151017476861 -0.008732372512217155 0  0.949727543387153 -0.009502891920517193 0  0.9547399097420136 -0.01027772438468268 0  0.9597522000999473 -0.01105691071353667 0  0.9647644137298468 -0.0118404927922493 0  0.9697765498818562 -0.01262851358005819 0  0.9747886077874109 -0.01342101710804232 0  0.9798005866592752 -0.01421804847694689 0  0.9848124856915792 -0.0150196538550587 0  0.9898243040598554 -0.01582588047613009 0  0.9948360409210739 -0.0166367766373504 0  0.9998476954136774 -0.01745239169736331 0  0.9948106293493593 -0.01809260583579465 0  0.9897736456536567 -0.01872810107543342 0  0.9847367434650114 -0.01935892677492327 0  0.9796999219403941 -0.01998513123145354 0  0.9746631802553368 -0.02060676167877656 0  0.9696265176039702 -0.02122386428517915 0  0.9645899331990582 -0.02183648415140651 0  0.9595534262720363 -0.02244466530853759 0  0.9545169960730487 -0.02304845071581004 0  0.9494806418709878 -0.02364788225839399 0  0.9444443629535334 -0.02424300074511249 0  0.939408158627194 -0.02483384590610709 0  0.9343720282173481 -0.02542045639044785 0  0.929335971068287 -0.02600286976368493 0  0.9242999865432591 -0.02658112250534037 0  0.9192640740245138 -0.02715525000633903 0  0.9142282329133482 -0.02772528656637582 0  0.9091924626301543 -0.0282912653912179 0  0.9041567626144661 -0.02885321858993978 0  0.8991211323250108 -0.02941117717208898 0  0.8940855712397578 -0.02996517104478055 0  0.8890500788559724 -0.03051522900971794 0  0.8840146546902675 -0.03106137876013807 0  0.8789792982786592 -0.0316036468776781 0  0.873944009176623 -0.03214205882916156 0  0.8689087869591506 -0.0326766389633012 0  0.8638736312208103 -0.03320741050731613 0  0.8588385415758056 -0.03373439556345997 0  0.8538035176580394 -0.03425761510545788 0  0.8487685591211763 -0.03477708897484892 0  0.8437336656387094 -0.0352928358772309 0  0.8386988369040269 -0.03580487337840445 0  0.833664072630481 -0
[...]
<PointData  Scalars="u"> 
<DataArray  type="Float64"  Name="u"  format="ascii">5.0862480805605401e+01  4.8631859714976876e+01  4.6511538381216823e+01  4.4535171946822537e+01  4.2702013204031587e+01  4.0936187803629956e+01  3.9278153833266742e+01  3.7684874064444926e+01  3.6155748579564253e+01  3.4699543436190815e+01  3.3301601462664081e+01  3.1964571949992926e+01  3.0678498349060423e+01  2.9447399797049812e+01  2.8261941185108611e+01  2.7125027756660785e+01  2.6029069032595217e+01  2.4977552914509364e+01  2.3969960286970654e+01  2.2996842687583115e+01  2.2061663760885899e+01  2.1159649472392694e+01  2.0293466833144215e+01  1.9458554361259637e+01  1.8657255324606581e+01  1.7882696982224775e+01  1.7136315303939316e+01  1.6420105135734751e+01  1.5729075698392768e+01  1.5060544282322811e+01  1.4418264122635538e+01  1.3797348961182221e+01  1.3199242249031274e+01  1.2624470623385523e+01  1.2068203125981272e+01  1.1533389016753414e+01  1.1015429855293444e+01  1.0515617021036544e+01  1.0035939573164976e+01  9.5719343037991500e+00  9.1224968950858685e+00  8.6903783133067822e+00  8.2716741514620473e+00  7.8708476199161250e+00  7.4816386022186272e+00  7.1068402862118294e+00  6.7431877094828563e+00  6.3920711182323346e+00  6.0554456196208175e+00  5.7293301641978704e+00  5.4125533607261245e+00  5.1078068777476062e+00  4.8119876837673674e+00  4.5276898897862434e+00  4.2552769147372294e+00  3.9897799352025882e+00  3.7327206341489507e+00  3.4862473555306810e+00  3.2470016927734866e+00  3.0140878451998958e+00  2.7905037802215804e+00  2.5734988719995298e+00  2.3641839306698538e+00  2.1631228080132212e+00  1.9674414938314690e+00  1.7793870775107590e+00  1.5963262587410845e+00  1.4210465279808318e+00  1.2500376744308286e+00  1.0857058249500746e+00  9.2445892793459949e-01  7.6977239895987037e-01  6.2005538837296603e-01  4.7565306088057524e-01  3.3819339510926094e-01  2.0366981945891338e-01  7.2074916754545706e-02  -5.4103473769462743e-02  -1.7742402546352190e-01  -2.9633786621586528e-01  -4.0951795712468447e-01  -5.1908332033375804e-01  -6.2683646277587812e-01  -7.3017209632530566e-01  -8.2876360957312178e-01  -9.2489932727878588e-01  -1.0196108924090559e+00  -1.1097397369486031e+00  -1.1982439870376074e+00  -1.2827733937402248e+00  -1.3651250350873776e+00  -1.4448568694924742e+00  -1.5221190927507007e+00  -1.5968700711420818e+00  -1.6695925620976846e+00  -1.7390930530380113e+00  -1.8055756169579491e+00  -1.8714086386823585e+00  -1.9337435453070304e+00  -1.9952246295987308e+00  -2.0531048489175383e+00  -2.1106850164355082e+00  -2.1648750335480447e+00  -2.2186032950158356e+00  -2.2697310449517216e+00  -2.3205776785388834e+00  -2.3684299955902506e+00  -2.4155594434339180e+00  -2.4589502941034964e+00  -2.5026607914214352e+00  -2.5444863054601932e+00  -2.5864471648758847e+00  -2.6269726351566853e+00  -2.6657518414132175e+00  -2.7029037933884315e+00  -2.7390926271511815e+00  -2.7727013383455859e+00  -2.8061698496348693e+00  -2.8398865656718968e+00  -2.8714525253124932e+00  -2.9030893263201074e+00  -2.9322661017533509e+00  -2.9615009171940030e+00  -2.9882356119047362e+00  -3.0154987551248662e+00  -3.0407802428044066e+00  -3.0664312578118094e+00  -3.0901687939269151e+00  -3.1144395380120304e+00  -3.1386403502894575e+00  -3.1605197831002405e+00  -3.1833838495439841e+00  -3.2050340252611145e+00  -3.2243237584065843e+00  -3.2438187291659353e+00  -3.2642791297556029e+00  -3.2833221885336332e+00  -3.3008633138588919e+00  -3.3198889734833372e+00  -3.3386006154738190e+00  -3.3561061446332836e+00  -3.3741741500039986e+00  -3.3909922470577345e+00  -3.4081238461669754e+00  -3.4252443434654887e+00  -3.4412393170740097e+00  -3.4570170673430338e+00  -3.4739103154854902e+00  -3.4892261112143346e+00  -3.5058511253487317e+00  -3.5217133823590299e+00  -3.5389493837788093e+00  -3.5550564073024278e+00  -3.5722680562175495e+00  -3.5876521091021574e+00  -3.6051899943451868e+00  -3.6241930231280000e+00  -3.6426530964537585e+00  -3.6624320736946570e+00  -3.6816661158395503e+00  -3.7002254858222554e+00  -3.7213403673369649e+00  -3.7434626077899753e+00  -3.7658862478161339e+00  -3.7886401110473771e+00  -3.8136338149923095e+00  -3.8386316058323420e+00  -3.8660867533956371e+00  -3.8940360813592587e+00  -3.9247651801522347e+00  -3.9561859031704891e+00  -3.9897719408327239e+00  -4.0252499982663865e+00  -4.0636919562341545e+00  -4.1025037832746003e+00  -4.1452106814418332e+00  -4.1894290385072583e+00  -4.2378641774852941e+00  -4.2886776947632876e+00  -4.3413494608819088e+00  -4.3987407266144682e+00  -4.4607352221059919e+00  -4.5253277803225016e+00  -4.5952831376631362e+00  -4.6682797475281967e+00  -4.7455849250904159e+00  -4.8292864239091768e+00  -4.9171267215587635e+00  -5.0114433817387853e+00  -5.1099426537496218e+00  -5.2153901214862266e+00  -5.3272542179065212e+00  -5.4439316029097329e+00  -5.5675829701525501e+00  -5.6967055962639463e+00  -5.8316516880223332e+00  -5.9700860379228624e+00  -6.1081339497471330e+00  -6.2408434095257466e+00  -6.3452553370431373e+00  -6.0871159725209489e+00  -5.8728372811959479e+00  -5.6758886950987550e+00  -5.4918820527879921e+00  -5.3183078003677329e+00  -5.1556877141340047e+00  -5.0044652876502260e+00  -4.8605358835741717e+00  -4.7242460096004288e+00  -4.5959903986506623e+00  -4.4748342275950739e+00  -4.3619115981773593e+00  -4.2568101880756375e+00  -4.1563695555189346e+00  -4.0606983982362248e+00  -3.9702080478852930e+00  -3.8845827403930921e+00  -3.8052613204654495e+00  -3.7305379192629835e+00  -3.6574242900072060e+00  -3.5878858490633094e+00  -3.5213993458238129e+00  -3.4581421757378212e+00  -3.3994531451485455e+00  -3.3449667361411359e+00  -3.2905324426045159e+00  -3.2381122761146890e+00  -3.1877982727911300e+00  -3.1408412244879105e+00  -3.0957916990026906e+00  -3.0509999372944425e+00  -3.0086396711799730e+00  -2.9666899905621889e+00  -2.9269894155509451e+00  -2.8873158545524835e+00  -2.8496456935857064e+00  -2.8144633573392510e+00  -2.7780882914048100e+00  -2.7430632083837208e+00  -2.7076702604943241e+00  -2.6741352808980099e+00  -2.6395161156780884e+00  -2.6055640861898071e+00  -2.5720921423009346e+00  -2.5402222297267936e+00  -2.5085524875843666e+00  -2.4768785660014281e+00  -2.4445995713759179e+00  -2.4120190139465096e+00  -2.3812447119445102e+00  -2.3487775520516960e+00  -2.3175467118617963e+00  -2.2868983799861424e+00  -2.2550353855228145e+00  -2.2218823920661688e+00  -2.1900682713238964e+00  -2.1586594730550450e+00  -2.1252574358919247e+00  -2.0907619955328376e+00  -2.0572947590944506e+00  -2.0218902634970641e+00  -1.9872402963528426e+00  -1.9539872717259330e+00  -1.9183198044355665e+00  -1.8813524019182233e+00  -1.8446416255538820e+00  -1.8060177869591967e+00  -1.7680015584429902e+00  -1.7307296380450508e+00  -1.6911381976425015e+00  -1.6498002085569148e+00  -1.6080546260386053e+00  -1.5652406731443067e+00  -1.5223475707190439e+00  -1.4798441068910022e+00  -1.4356732371608536e+00  -1.3894781610898965e+00  -1.3433990041025778e+00  -1.2947145534124065e+00  -1.2463219760239082e+00  -1.1982648732403454e+00  -1.1476198142756422e+00  -1.0948233135083494e+00  -1.0421447893899778e+00  -9.8888592031566980e-01  -9.3191432610823199e-01  -8.7351711134552557e-01  -8.1321337110749481e-01  -7.5395603233667485e-01  -6.9398514461556671e-01  -6.3127399977500964e-01  -5.6620769019170047e-01  -4.9895643268955464e-01  -4.3111059931423534e-01  -3.6017425058609381e-01  -2.8841310248253765e-01  -2.1369897873280636e-01  -1.3821410121240557e-01  -6.0378296174392942e-02  1.7617167728441588e-02  9.9723581357535673e-02  1.8473575659824701e-01  2.7107096159094002e-01  3.6112611292166608e-01  4.5209078673103958e-01  5.4452901830697975e-01  6.4114719262824404e-01  7.4095019627769143e-01  8.4200471022807466e-01  9.4722420223911497e-01  1.0546791965760718e+00  1.1640963165443954e+00  1.2781870247464457e+00  1.3945028037595635e+00  1.5153293148196529e+00  1.6381556884794466e+00  1.7662193486388784e+00  1.8977188514090051e+00  2.0329406235889174e+00  2.1701706226191866e+00  2.3112529969434541e+00  2.4558885836108901e+00  2.6065357158613098e+00  2.7636489264024875e+00  2.9242295882702947e+00  3.0889716171965018e+00  3.2562263702074543e+00  3.4314450497993532e+00  3.6118698238399189e+00  3.7960198530750446e+00  3.9866181800926155e+00  4.1841628300829115e+00  4.3858742167410192e+00  4.5943427515869244e+00  4.8106795880978979e+00  5.0329303398186624e+00  5.2602388710195118e+00  5.4955510745872660e+00  5.7394481280405181e+00  5.9898896058242661e+00  6.2485076995138282e+00  6.5137968268564022e+00  6.7890621471921264e+00  7.0712256087918766e+00  7.3642740314648085e+00  7.6657773271001695e+00  7.9776561827269896e+00  8.2977773641450732e+00  8.6295541000416645e+00  8.9716843296667861e+00  9.3240805539530420e+00  9.6856439179640770e+00  1.0061733894152306e+01  1.0449352289755204e+01  1.0850297133110614e+01  1.1263785841317214e+01  1.1691176008683657e+01  1.2132910611673218e+01  1.2589322021619143e+01  1.3061013970150357e+01  1.3547467944273905e+01  1.4047467425658496e+01  1.4566580654234295e+01  1.5102451523069611e+01  1.5657745353458852e+01  1.6230333411933277e+01  1.6823672785847343e+01  1.7435711008259453e+01  1.8070464564572539e+01  1.8724104717117161e+01  1.9400107659925133e+01  2.0102748928724790e+01  2.0828769842678287e+01  2.1579396343351750e+01  2.2353096253086143e+01  2.3155525939537984e+01  2.3986682674180081e+01  2.4844539360592069e+01  2.5735403113953435e+01  2.6653962586851151e+01  2.7606704582327012e+01  2.8592601233030898e+01  2.9612108897600105e+01  3.0667400619251730e+01  3.1757049709419487e+01  3.2882594868066668e+01  3.4052408728097774e+01  3.5264734610466078e+01  3.6513683134130950e+01  3.7812112121673543e+01  3.9149446144767509e+01  4.0541319238111967e+01  4.1973747054572605e+01  4.3460223002416740e+01  4.4977503203093711e+01  4.6556259855591904e+01  4.8164420928810571e+01  4.9775562467149243e+01  1.6548368776696570e+01  0.0000000000000000e+00  0.0000000000000000e+00  0.0000000000000000e+00  5.0129818283142825e+01  5.0735933076671529e+01  1.6513462063603509e+01  1.6467106831111504e+01  1.6375162657127824e+01  1.6276588153910382e+01  1.6152991963273507e+01  1.5923799451439924e+01  1.5755690751276706e+01  1.5402370269145916e+01  1.5152322107615147e+01  1.4759102163177580e+01  1.4305095393703059e+01  1.4034554878849951e+01  1.3116048620392981e+01  1.1132536243389744e+01  1.5591988571860265e+01  0.0000000000000000e+00  0.0000000000000000e+00  0.0000000000000000e+00  0.0000000000000000e+00  0.0000000000000000e+00  0.0000000000000000e+00  0.0000000000000000e+00  0.0000000000000000e+00  0.0000000000000000e+00  0.0000000000000000e+00  0.0000000000000000e+00  0.0000000000000000e+00  0.0000000000000000e+00  0.0000000000000000e+00  0.0000000000000000e+00  0.0000000000000000e+00  0.0000000000000000e+00  0.0000000000000000e+00  0.0000000000000000e+00  0.0000000000000000e+00  0.0000000000000000e+00  0.0000000000000000e+00  0.0000000000000000e+00  0.0000000000000000e+00  0.0000000000000000e+00  0.0000000000000000e+00  0.0000000000000000e+00  0.0000000000000000e+00  0.0000000000000000e+00  0.0000000000000000e+00  1.2547016653631706e+01  1.2646845565842439e+01  1.2983079207510185e+01  1.3597216805410627e+01  1.4439232006493164e+01  1.4971522143557605e+01  1.5320596804738775e+01  1.5507741019379749e+01  1.5891180555817883e+01  1.5984861460144142e+01  1.6208382974738921e+01  1.6330822300827705e+01  1.6429739018552496e+01  1.6502021541253143e+01  1.6536249717230664e+01  1.5526975243615590e+01  1.3933257303777090e+01  1.7882116082344783e+01  1.6604389735738419e+01  1.4134166856988609e+01  1.6224516393327853e+01  1.2465452562083387e+01  1.9132252245887990e+01  1.5434418967758683e+01  1.5707705704710428e+01  2.0699918239433778e+01  8.8206581021876413e+00  1.1889072485033219e+01  1.2721321999388319e+01  2.2791884396931152e+01  3.3037335344862093e+00  1.1228913740357627e+00  6.1421618778007687e+00  2.1226103887675436e+01  1.8932175926763566e+01  1.2605627984515403e+01  2.0338624336581715e-01  -1.6055059582769231e+00  1.6193189675794880e+01  7.2545206354239804e+00  2.4376541362196033e+01  9.4650581752862148e+00  2.1962460798653471e+01  2.1357514755292439e+00  -4.1001966510748590e-02  1.0282511949942879e+01  1.3582721631159560e+01  -2.2609747351079608e+00  3.3674051063632713e+00  1.2141503334896401e+01  1.7374361265737712e+00  5.7530632447104599e+00  2.7780416802302902e+01  3.6883622845171978e+01  -2.0152287232870886e-01  -1.6710429728812082e+00  -1.0846086521491038e+00  -2.2165532240518879e+00  -3.0131508549973463e+00  -3.5898414533430807e+00  2.4300278587847412e+01  5.1425379976426111e-01  3.2978004668094085e+00  8.7821219440623359e+00  1.7775810851303493e+01  1.2284359024023937e+01  2.2802010362007707e+01  -2.5985595558399059e+00  -4.3854996365708061e+00  3.6334077855148443e+00  -3.9594203761946722e-01  1.7064582612614876e+00  1.2674886076234669e+01  -1.7959381042337643e+00  3.7024329920158472e+01  -1.3072454356965502e+00  -2.6718569382840904e+00  1.7034171414276440e+01  -2.3930760842668684e+00  -3.5399865856694204e+00  3.5434402783112603e+01  4.3755913372610259e+01  -2.8809063974644551e+00  -3.1886582225560982e+00  3.8976200377961470e+00  1.0013225486458730e+01  1.1175945997255345e+00  -8.4221407185359953e-01  1.0155499183781025e+01  7.2556996632547825e+00  2.4489136715419879e+00  5.0359014013237759e+00  -2.0526301848280856e-01  2.9039928754628953e+01  8.2545988983297303e+00  1.3084260811624205e+01  -1.6018676122529956e+00  -3.4595783806919318e+00  -3.7272284867009793e+00  -4.2067226551413697e+00  -4.4885221445950361e+00  -1.9596533853666542e+00  -2.3836437868669340e+00  -2.2569097771719804e+00  4.0553542122167237e+01  1.9291643096895136e+01  -4.9055809678105122e+00  1.1278239214996058e+01  1.7876442440716144e+01  -4.2427137712407290e-02  -5.5670535557963614e+00  1.4974986670950956e+01  1.0301983925826807e+01  2.5215023180806586e+01  -1.2168170841184145e+00  3.4108921004895940e+01  8.7424334856461117e-01  2.2339317413966189e+00  -2.7556546362168466e-01  -2.7759992862761624e+00  -3.2241506364401080e+00  8.1866369024236239e+00  -1.4162836302666508e+00  -1.7789645422117555e+00  2.8899215413967355e-01  1.1697808621965200e+00  -2.8710044672414416e+00  3.3344070398958676e+00  2.4817405010568070e+01  1.6232824137835273e+01  4.4632847820311667e+00  2.5826045911494372e+01  3.5347401060548577e+01  4.3397907710761416e+01  -2.6449174313342265e+00  1.2875800187984982e+01  -3.6839435119851816e+00  -3.1891283600037803e+00  -3.7684139188218557e+00  -4.5991739250482508e+00  1.1688155249033748e+01  1.3314820843872381e+01  4.7267379580510209e+01  1.8430805989763282e+01  4.5345757199012526e+00  6.0630763001377046e+00  -3.4380621037708283e+00  1.3857668935433544e+01  -8.0340012184127430e-01  1.7246965325237511e+01  1.4912535228506618e+01  4.9705219896908881e+00  -8.2174603869653973e-01  -4.0320749275442864e+00  -3.0862349686124593e+00  -1.2242485439191775e+00  -3.3512677720751873e+00  -2.2838838753561581e+00  9.8439606818373946e+00  -2.1018933292926052e+00  -1.7760632562262195e+00  1.4635875912754493e+01  3.3455623021388559e+00  9.2420193032874511e+00  -2.0421737054372335e+00  1.7587783454557027e+00  -3.5641133815475241e+00  4.8821059132862160e+01  1.0910450616069369e+01  1.6715522585343159e+01  7.6825487923230851e+00  1.5751801685813383e+01  4.2554922773484748e+01  1.8416448624374954e+01  1.3567576712552230e+01  -4.6664763618416947e+00  8.3948377828511891e+00  1.3649953748039266e+01  2.0999117131667429e+01  1.2758841045824614e+01  1.2117657733751734e+01  1.5603606449991858e+01  1.2397879580402925e+01  5.6056525754666504e+00  1.6302828157635783e+01  -2.2766511957260427e+00  1.9417688637805760e+01  1.7759323946475284e-02  -2.0299949527553345e+00  7.0557796166318285e+00  -5.4965147223041688e+00  -5.0047773613927955e+00  4.8294426167738189e+00  1.6936266947023981e+01  9.0027478375215395e+00  1.5242618779476871e+01  -2.3073253814521294e-01  2.0953321340575904e+01  -3.6134291078505085e+00  -3.8453744957747760e+00  2.6450775455130926e+00  -6.9686163519561362e-01  1.7820800531487226e+01  -4.2882551837494027e+00  -5.5098860361197595e+00  -1.3915372620705788e+00  2.8803278735610387e+01  6.3927229642744168e+00  -5.8730365943577323e-01  -2.6480771061343931e+00  -3.0386480762436796e+00  7.6602281083514931e+00  8.2440154553568945e+00  1.6888854032633514e+01  2.3524589090507675e+00  1.8982795722057556e+01  1.4056145108276670e+00  -2.4926645231686284e+00  1.2532779960887924e+01  1.7503728173403534e+01  -2.5426175075336559e+00  1.1843088306724972e+01  2.7843284208338684e+01  5.9619328141857586e-01  2.7625269682363488e+01  1.1692626090728551e+01  3.9786206319809767e+00  1.8300254813941393e+01  -2.8596056023074738e+00  1.3003155058967863e+00  1.1423558230434979e+01  2.2661478347843769e+01  -1.6967380886270789e+00  2.9838234106889661e+01  1.0008190764670051e+01  3.7720158392309666e+00  -3.0778124010681207e-01  1.2849579350512721e+01  1.5163417326841445e+01  1.3959511368869359e+01  -5.5510006868527180e+00  -4.1803965941709453e+00  -1.2422180803204332e+00  -3.0352448881642045e+00  -3.2179157514666965e+00  1.0444990995299865e+01  1.3939910227292080e+01  1.6746608938821506e+01  -1.0687320663810940e+00  -1.4555263344407359e+00  6.9913952007111586e+00  2.9523658963397303e+01  5.3629017970985897e+00  -3.4504210386809349e+00  -4.2733627660678364e+00  -2.3847334989770719e+00  -5.0547981412000258e+00  5.1757613640857147e-01  -4.8923210408763651e-01  -1.5813735075564488e+00  3.4539365630160397e+01  3.6409153784581711e+00  1.1862004076048367e+00  -2.2076655525904263e+00  2.1744360524228594e+00  -3.2995634833933800e+00  3.8696098961125325e-01  -3.5582745510317926e+00  5.7802823112653068e-01  3.8467548180314948e-02  5.2178831689253187e+00  3.5109249139366156e+01  4.1263388189594899e+01  -2.1248354016750124e+00  2.4471679228118170e+01  -6.0292629417224806e+00  -7.1363372504529332e-01  4.7053919070048000e-01  1.5820526402582219e+01  1.5944677509355898e+01  1.6651731467014852e+01  1.8662279942692884e+01  1.1624777929924109e+01  1.3848609135260585e+01  1.3190375989747377e+01  7.4140988769546237e+00  -2.8182087531398263e+00  1.2374777857450807e+00  -1.9905433687064116e+00  1.4819250235075234e+01  -2.6582459104539127e+00  2.9089875594569432e+00  3.3377533653357729e+00  -3.2053612445028596e+00  1.3508959064923637e+01  1.0569816144481722e+01  1.2396064007483179e+01  1.4012144081280967e+01  -3.2513206002982868e+00  -4.9847024692763355e+00  2.3242362529265885e+00  8.9881534756881418e-02  -1.9254826089445929e+00  6.6240951559218930e-01  1.0137466719147026e+01  -4.1417963996118647e+00  1.3825589848873181e+01  1.6564285044343059e+01  5.0646467126141799e+00  3.2322994196399528e+00  3.4460597007495650e+01  3.9576023964510497e+01  2.6177720742285985e+01  1.5131520975635869e+01  1.0544351088304593e+01  1.4146653520303465e+01  1.7118025792739019e+01  4.9763385049712214e+00  1.6476758911409387e+01  1.1635519383783009e+01  -2.0326532906470320e+00  4.2158465871822148e+00  1.6445210445930616e+01  -3.4417187799684781e+00  1.2218932110507129e+01  1.2108155733246512e+01  1.6727146829448198e+01  1.3931734778822653e+01  1.7366409311872442e+01  2.0027221300462728e+01  -3.4804117139929187e+00  1.4908663569733365e+01  2.1245274520061550e+01  -2.7202845520602636e+00  -3.7136665191625071e+00  -8.5017710752044917e-01  7.9340053568987203e+00  -3.9933612927908051e+00  4.7858059189656437e+01  1.4612986134858250e+00  5.8445601977486108e+00  8.9156553664834508e+00  1.0326323669602614e+01  1.5913043006835819e+01  2.2164590114346396e+01  -8.3924446259413377e-01  1.7951841934166065e+01  1.1705897163813367e+01  1.3985821495632331e+01  3.8855653692423580e+01  -1.8211988747937939e+00  8.1536145902813590e+00  1.0786253989422237e+01  -4.1683231066347330e+00  1.4785597046882653e+01  -4.4691273172370645e+00  -3.2647359319839586e-01  6.7307069119575331e+00  1.8328899673503972e+01  1.6063866857257658e+01  7.2947785214022201e+00  5.3856915883282213e+00  1.1657508378893402e+01  9.0751492629744170e+00  -2.3787359623447903e+00  1.7460250632654176e+01  -2.9809035357368274e+00