<?xml version="1.0"?>
<VTKFile type="UnstructuredGrid"  version="0.1"  >
<UnstructuredGrid>
<Piece  NumberOfPoints="5665" NumberOfCells="10866">
<Points>
<DataArray  type="Float64"  NumberOfComponents="3"  format="ascii">0 0 0  0.005238026502541167 0.0121532396601488 0  0.01034676844792354 0.01689976574376667 0  0.01543408867173694 0.02041904118380813 0  0.0205102348999341 0.02329815830290497 0  0.02557917784950812 0.02576459951742299 0  0.03064295500511558 0.02793509234377689 0  0.03570277759930535 0.0298790283068407 0  0.04075943555845489 0.03164166229670518 0  0.04581347820995564 0.03325446528513457 0  0.05086530608158131 0.03474038351230363 0  0.05591522204376106 0.03611676842813705 0  0.06096346185057889 0.03739712638647186 0  0.06601021339667874 0.03859222187334359 0  0.0710556294024393 0.03971080424078027 0  0.07609983607684939 0.04076010400301824 0  0.08114293921509697 0.0417461821674347 0  0.08618502860241112 0.04267418253070718 0  0.09122618126598143 0.043548517981297 0  0.09626646392312314 0.04437301075486622 0  0.1013059348559291 0.04515099983309559 0  0.1063446453685388 0.04588542443065277 0  0.1113826409352795 0.0465788897722046 0  0.1164199621162375 0.04723371954550182 0  0.1214566452953707 0.04785199818785829 0  0.1264927232814744 0.04843560531547794 0  0.1315282258019162 0.04898624400955593 0  0.1365631799116385 0.04950546424801371 0  0.1415976103345504 0.04999468246384916 0  0.1466315397504873 0.05045519798506762 0  0.1516649890379851 0.05088820694318184 0  0.1566979774809081 0.05129481411099283 0  0.1617305229453022 0.05167604303443216 0  0.1667626420315509 0.05203284474965102 0  0.171794350205927 0.05236610531956329 0  0.1768256619148477 0.05267665237956284 0  0.1818565906845366 0.05296526084712219 0  0.1868871492083055 0.05323265792221688 0  0.1919173494232881 0.05347952748335247 0  0.1969472025781407 0.05370651396615293 0  0.2019767192929772 0.0539142257970593 0  0.2070059096126012 0.05410323844296341 0  0.2120347830539274 0.05427409712801209 0  0.2170633486483511 0.05442731926092947 0  0.222091614979707 0.05456339660968747 0  0.2271195902183664 0.05468279725494146 0  0.2321472821519424 0.05478596734913288 0  0.2371746982130071 0.0548733327043778 0  0.242201845504167 0.05494530022907924 0  0.2472287308208 0.05500225923051334 0  0.2522553606717144 0.05504458259836192 0  0.2572817412979564 0.05507262788222707 0  0.2623078786899665 0.05508673827450852 0  0.2673337786032577 0.05508724350860923 0  0.2723594465727689 0.05507446068121672 0  0.2773848879260261 0.05504869500636039 0  0.2824101077952329 0.05501024050803788 0  0.2874351111283929 0.05495938065741866 0  0.2924599026995572 0.05489638895995084 0  0.2974844871182815 0.05482152949710279 0  0.3025088688383624 0.05473505742695095 0  0.3075330521659239 0.05463721944737245 0  0.3125570412669076 0.05452825422520034 0  0.317580840174022 0.0544083927943504 0  0.3226044527931976 0.05427785892561688 0  0.3276278829095894 0.05413686947056456 0  0.3326511341931652 0.05398563468169943 0  0.3376742102039154 0.05382435851088885 0  0.3426971143967122 0.05365323888780957 0  0.3477198501258504 0.05347246798003417 0  0.3527424206492914 0.05328223243621363 0  0.3577648291326367 0.05308271361368044 0  0.3627870786528491 0.0528740877916746 0  0.3678091722017434 0.05265652637128731 0  0.3728311126892615 0.05243019606312002 0  0.3778529029465496 0.0521952590635683 0  0.3828745457288512 0.05195187322056304 0  0.3878960437182294 0.05170019218952852 0  0.3929173995261309 0.0514403655802548 0  0.3979386156958011 0.05117253909532261 0  0.4029596947045647 0.05089685466066743 0  0.4079806389659755 0.05061345054882115 0  0.4130014508318492 0.05032246149532771 0  0.4180221325941841 0.05002401880878829 0  0.4230426864869778 0.04971825047495815 0  0.4280631146879479 0.04940528125528214 0  0.43308341932016 0.04908523278022921 0  0.4381036024535731 0.04875822363775598 0  0.4431236661065031 0.04842436945720797 0  0.448143612247013 0.04808378298894189 0  0.453163442794233 0.0477365741799331 0  0.4581831596196138 0.04738285024561264 0  0.4632027645481188 0.0470227157381616 0  0.4682222593593586 0.04665627261147375 0  0.4732416457886692 0.04628362028298268 0  0.4782609255281408 0.04590485569253701 0  0.4832801002275958 0.04552007335849396 0  0.4882991714955231 0.04512936543118998 0  0.4933181408999677 0.04473282174393684 0  0.49833700996938 0.04433052986168239 0  0.5033557801934271 0.04392257512746423 0  0.5083744530237669 0.04350904070677837 0  0.5133930298747884 0.04309000762997599 0  0.5184115121243186 0.04266555483279374 0  0.5234299011143 0.04223575919511792 0  0.5284481981514371 0.04180069557807491 0  0.5334664045078168 0.04136043685953591 0  0.5384845214215018 0.04091505396811783 0  0.5435025500970989 0.04046461591575749 0  0.5485204917063042 0.04000918982893143 0  0.5535383473884251 0.03954884097858998 0  0.5585561182508825 0.03908363280886933 0  0.5635738053696907 0.03861362696464198 0  0.5685914097899193 0.03813888331796304 0  0.5736089325261368 0.0376594599934653 0  0.5786263745628358 0.03717541339275407 0  0.5836437368548431 0.03668679821784964 0  0.5886610203277121 0.03619366749372188 0  0.5936782258781016 0.03569607258996044 0  0.5986953543741396 0.03519406324161968 0  0.6037124066557727 0.03468768756927747 0  0.6087293835351048 0.03417699209834292 0  0.6137462857967197 0.03366202177764776 0  0.6187631141979951 0.03314281999735318 0  0.6237798694694028 0.03261942860620303 0  0.6287965523147994 0.0320918879281518 0  0.633813163411706 0.03156023677839564 0  0.6388297034115783 0.03102451247883129 0  0.6438461729400667 0.0304847508729692 0  0.6488625725972671 0.02994098634032237 0  0.6538789029579641 0.02939325181029495 0  0.6588951645718641 0.0288415787755908 0  0.6639113579638226 0.02828599730516195 0  0.6689274836340612 0.02772653605671687 0  0.673943542058379 0.02716322228880629 0  0.6789595336883573 0.02659608187250356 0  0.6839754589515551 0.0260251393026968 0  0.6889913182517017 0.02545041770900753 0  0.6940071119688789 0.02487193886635208 0  0.699022840459701 0.0242897232051584 0  0.7040385040574866 0.02370378982125323 0  0.7090541030724258 0.02311415648543186 0  0.7140696377917422 0.02252083965272285 0  0.7190851084798485 0.02192385447136002 0  0.7241005153784998 0.02132321479147222 0  0.7291158587069391 0.0207189331735022 0  0.7341311386620403 0.02011102089636457 0  0.7391463554184465 0.01949948796535284 0  0.7441615091287034 0.01888434311980471 0  0.7491765999233887 0.01826559384053462 0  0.7541916279112387 0.01764324635704245 0  0.7592065931792701 0.01701730565450599 0  0.7642214957928977 0.01638777548056568 0  0.769236335796051 0.01575465835190849 0  0.7742511132112837 0.01511795556065875 0  0.7792658280398836 0.01447766718058234 0  0.7842804802619768 0.01383379207311114 0  0.7892950698366302 0.01318632789319397 0  0.7943095967019511 0.01253527109497995 0  0.7993240607751827 0.0118806169373405 0  0.8043384619527985 0.01122235948923519 0  0.8093528001105926 0.01056049163492655 0  0.8143670751037693 0.009895005079050124 0  0.8193812867670283 0.009225890351543078 0  0.8243954349146481 0.008553136812437526 0  0.8294095193405684 0.007876732656522251 0  0.8344235398184682 0.007196664917877517 0  0.8394374961018436 0.006512919474287168 0  0.8444513879240824 0.005825481051532076 0  0.849465214998537 0.005134333227568549 0  0.8544789770185954 0.004439458436595978 0  0.8594926736577505 0.003740837973016517 0  0.8645063045696671 0.003038451995291146 0  0.8695198693882481 0.002332279529694675 0  0.8745333677276973 0.001622298473973488 0  0.8795467991825824 0.0009084856009084902 0  0.8845601633278956 0.0001908165617869224 0  0.8895734597191119 -0.0005307341102147537 0  0.8945866878922478 -0.001256192996733687 0  0.8995998473639164 -0.001985587791006797 0  0.9046129376313824 -0.002718947294737539 0  0.9096259581726157 -0.003456301415040958 0  0.9146389084463429 -0.004197681161464576 0  0.9196517878920988 -0.004943118643082908 0  0.9246645959302748 -0.005692647065663109 0  0.9296773319621684 -0.006446300728900088 0  0.9346899953700288 -0.007204115023718713 0  0.9397025855171041 -0.007966126429641011 0  0.9447151017476861 -0.008732372512217155 0  0.949727543387153 -0.009502891920517193 0  0.9547399097420136 -0.01027772438468268 0  0.9597522000999473 -0.01105691071353667 0  0.9647644137298468 -0.0118404927922493 0  0.9697765498818562 -0.01262851358005819 0  0.9747886077874109 -0.01342101710804232 0  0.9798005866592752 -0.01421804847694689 0  0.9848124856915792 -0.0150196538550587 0  0.9898243040598554 -0.01582588047613009 0  0.9948360409210739 -0.0166367766373504 0  0.9998476954136774 -0.01745239169736331 0  0.9948106293493593 -0.01809260583579465 0  0.9897736456536567 -0.01872810107543342 0  0.9847367434650114 -0.01935892677492327 0  0.9796999219403941 -0.01998513123145354 0  0.9746631802553368 -0.02060676167877656 0  0.9696265176039702 -0.02122386428517915 0  0.9645899331990582 -0.02183648415140651 0  0.9595534262720363 -0.02244466530853759 0  0.9545169960730487 -0.02304845071581004 0  0.9494806418709878 -0.02364788225839399 0  0.9444443629535334 -0.02424300074511249 0  0.939408158627194 -0.02483384590610709 0  0.9343720282173481 -0.02542045639044785 0  0.929335971068287 -0.02600286976368493 0  0.9242999865432591 -0.02658112250534037 0  0.9192640740245138 -0.02715525000633903 0  0.9142282329133482 -0.02772528656637582 0  0.9091924626301543 -0.0282912653912179 0  0.9041567626144661 -0.02885321858993978 0  0.8991211323250108 -0.02941117717208898 0  0.8940855712397578 -0.02996517104478055 0  0.8890500788559724 -0.03051522900971794 0  0.8840146546902675 -0.03106137876013807 0  0.8789792982786592 -0.0316036468776781 0  0.873944009176623 -0.03214205882916156 0  0.8689087869591506 -0.0326766389633012 0  0.8638736312208103 -0.03320741050731613 0  0.8588385415758056 -0.03373439556345997 0  0.8538035176580394 -0.03425761510545788 0  0.8487685591211763 -0.03477708897484892 0  0.8437336656387094 -0.0352928358772309 0  0.8386988369040269 -0.03580487337840445 0  0.833664072630481 -0
[...]
<PointData  Vectors="u"> 
<DataArray  type="Float64"  Name="u"  NumberOfComponents="3" format="ascii">0.0000000000000000e+00 0.0000000000000000e+00 0.0000000000000000e+00  0.0000000000000000e+00 0.0000000000000000e+00 0.0000000000000000e+00  0.0000000000000000e+00 0.0000000000000000e+00 0.0000000000000000e+00  0.0000000000000000e+00 0.0000000000000000e+00 0.0000000000000000e+00  0.0000000000000000e+00 0.0000000000000000e+00 0.0000000000000000e+00  0.0000000000000000e+00 0.0000000000000000e+00 0.0000000000000000e+00  0.0000000000000000e+00 0.0000000000000000e+00 0.0000000000000000e+00  0.0000000000000000e+00 0.0000000000000000e+00 0.0000000000000000e+00  0.0000000000000000e+00 0.0000000000000000e+00 0.0000000000000000e+00  0.0000000000000000e+00 0.0000000000000000e+00 0.0000000000000000e+00  0.0000000000000000e+00 0.0000000000000000e+00 0.0000000000000000e+00  0.0000000000000000e+00 0.0000000000000000e+00 0.0000000000000000e+00  0.0000000000000000e+00 0.0000000000000000e+00 0.0000000000000000e+00  0.0000000000000000e+00 0.0000000000000000e+00 0.0000000000000000e+00  0.0000000000000000e+00 0.0000000000000000e+00 0.0000000000000000e+00  0.0000000000000000e+00 0.0000000000000000e+00 0.0000000000000000e+00  0.0000000000000000e+00 0.0000000000000000e+00 0.0000000000000000e+00  0.0000000000000000e+00 0.0000000000000000e+00 0.0000000000000000e+00  0.0000000000000000e+00 0.0000000000000000e+00 0.0000000000000000e+00  0.0000000000000000e+00 0.0000000000000000e+00 0.0000000000000000e+00  0.0000000000000000e+00 0.0000000000000000e+00 0.0000000000000000e+00  0.0000000000000000e+00 0.0000000000000000e+00 0.0000000000000000e+00  0.0000000000000000e+00 0.0000000000000000e+00 0.0000000000000000e+00  0.0000000000000000e+00 0.0000000000000000e+00 0.0000000000000000e+00  0.0000000000000000e+00 0.0000000000000000e+00 0.0000000000000000e+00  0.0000000000000000e+00 0.0000000000000000e+00 0.0000000000000000e+00  0.0000000000000000e+00 0.0000000000000000e+00 0.0000000000000000e+00  0.0000000000000000e+00 0.0000000000000000e+00 0.0000000000000000e+00  0.0000000000000000e+00 0.0000000000000000e+00 0.0000000000000000e+00  0.0000000000000000e+00 0.0000000000000000e+00 0.0000000000000000e+00  0.0000000000000000e+00 0.0000000000000000e+00 0.0000000000000000e+00  0.0000000000000000e+00 0.0000000000000000e+00 0.0000000000000000e+00  0.0000000000000000e+00 0.0000000000000000e+00 0.0000000000000000e+00  0.0000000000000000e+00 0.0000000000000000e+00 0.0000000000000000e+00  0.0000000000000000e+00 0.0000000000000000e+00 0.0000000000000000e+00  0.0000000000000000e+00 0.0000000000000000e+00 0.0000000000000000e+00  0.0000000000000000e+00 0.0000000000000000e+00 0.0000000000000000e+00  0.0000000000000000e+00 0.0000000000000000e+00 0.0000000000000000e+00  0.0000000000000000e+00 0.0000000000000000e+00 0.0000000000000000e+00  0.0000000000000000e+00 0.0000000000000000e+00 0.0000000000000000e+00  0.0000000000000000e+00 0.0000000000000000e+00 0.0000000000000000e+00  0.0000000000000000e+00 0.0000000000000000e+00 0.0000000000000000e+00  0.0000000000000000e+00 0.0000000000000000e+00 0.0000000000000000e+00  0.0000000000000000e+00 0.0000000000000000e+00 0.0000000000000000e+00  0.0000000000000000e+00 0.0000000000000000e+00 0.0000000000000000e+00  0.0000000000000000e+00 0.0000000000000000e+00 0.0000000000000000e+00  0.0000000000000000e+00 0.0000000000000000e+00 0.0000000000000000e+00  0.0000000000000000e+00 0.0000000000000000e+00 0.0000000000000000e+00  0.0000000000000000e+00 0.0000000000000000e+00 0.0000000000000000e+00  0.0000000000000000e+00 0.0000000000000000e+00 0.0000000000000000e+00  0.0000000000000000e+00 0.0000000000000000e+00 0.0000000000000000e+00  0.0000000000000000e+00 0.0000000000000000e+00 0.0000000000000000e+00  0.0000000000000000e+00 0.0000000000000000e+00 0.0000000000000000e+00  0.0000000000000000e+00 0.0000000000000000e+00 0.0000000000000000e+00  0.0000000000000000e+00 0.0000000000000000e+00 0.0000000000000000e+00  0.0000000000000000e+00 0.0000000000000000e+00 0.0000000000000000e+00  0.0000000000000000e+00 0.0000000000000000e+00 0.0000000000000000e+00  0.0000000000000000e+00 0.0000000000000000e+00 0.0000000000000000e+00  0.0000000000000000e+00 0.0000000000000000e+00 0.0000000000000000e+00  0.0000000000000000e+00 0.0000000000000000e+00 0.0000000000000000e+00  0.0000000000000000e+00 0.0000000000000000e+00 0.0000000000000000e+00  0.0000000000000000e+00 0.0000000000000000e+00 0.0000000000000000e+00  0.0000000000000000e+00 0.0000000000000000e+00 0.0000000000000000e+00  0.0000000000000000e+00 0.0000000000000000e+00 0.0000000000000000e+00  0.0000000000000000e+00 0.0000000000000000e+00 0.0000000000000000e+00  0.0000000000000000e+00 0.0000000000000000e+00 0.0000000000000000e+00  0.0000000000000000e+00 0.0000000000000000e+00 0.0000000000000000e+00  0.0000000000000000e+00 0.0000000000000000e+00 0.0000000000000000e+00  0.0000000000000000e+00 0.0000000000000000e+00 0.0000000000000000e+00  0.0000000000000000e+00 0.0000000000000000e+00 0.0000000000000000e+00  0.0000000000000000e+00 0.0000000000000000e+00 0.0000000000000000e+00  0.0000000000000000e+00 0.0000000000000000e+00 0.0000000000000000e+00  0.0000000000000000e+00 0.0000000000000000e+00 0.0000000000000000e+00  0.0000000000000000e+00 0.0000000000000000e+00 0.0000000000000000e+00  0.0000000000000000e+00 0.0000000000000000e+00 0.0000000000000000e+00  0.0000000000000000e+00 0.0000000000000000e+00 0.0000000000000000e+00  0.0000000000000000e+00 0.0000000000000000e+00 0.0000000000000000e+00  0.0000000000000000e+00 0.0000000000000000e+00 0.0000000000000000e+00  0.0000000000000000e+00 0.0000000000000000e+00 0.0000000000000000e+00  0.0000000000000000e+00 0.0000000000000000e+00 0.0000000000000000e+00  0.0000000000000000e+00 0.0000000000000000e+00 0.0000000000000000e+00  0.0000000000000000e+00 0.0000000000000000e+00 0.0000000000000000e+00  0.0000000000000000e+00 0.0000000000000000e+00 0.0000000000000000e+00  0.0000000000000000e+00 0.0000000000000000e+00 0.0000000000000000e+00  0.0000000000000000e+00 0.0000000000000000e+00 0.0000000000000000e+00  0.0000000000000000e+00 0.0000000000000000e+00 0.0000000000000000e+00  0.0000000000000000e+00 0.0000000000000000e+00 0.0000000000000000e+00  0.0000000000000000e+00 0.0000000000000000e+00 0.0000000000000000e+00  0.0000000000000000e+00 0.0000000000000000e+00 0.0000000000000000e+00  0.0000000000000000e+00 0.0000000000000000e+00 0.0000000000000000e+00  0.0000000000000000e+00 0.0000000000000000e+00 0.0000000000000000e+00  0.0000000000000000e+00 0.0000000000000000e+00 0.0000000000000000e+00  0.0000000000000000e+00 0.0000000000000000e+00 0.0000000000000000e+00  0.0000000000000000e+00 0.0000000000000000e+00 0.0000000000000000e+00  0.0000000000000000e+00 0.0000000000000000e+00 0.0000000000000000e+00  0.0000000000000000e+00 0.0000000000000000e+00 0.0000000000000000e+00  0.0000000000000000e+00 0.0000000000000000e+00 0.0000000000000000e+00  0.0000000000000000e+00 0.0000000000000000e+00 0.0000000000000000e+00  0.0000000000000000e+00 0.0000000000000000e+00 0.0000000000000000e+00  0.0000000000000000e+00 0.0000000000000000e+00 0.0000000000000000e+00  0.0000000000000000e+00 0.0000000000000000e+00 0.0000000000000000e+00  0.0000000000000000e+00 0.0000000000000000e+00 0.0000000000000000e+00  0.0000000000000000e+00 0.0000000000000000e+00 0.0000000000000000e+00  0.0000000000000000e+00 0.0000000000000000e+00 0.0000000000000000e+00  0.0000000000000000e+00 0.0000000000000000e+00 0.0000000000000000e+00  0.0000000000000000e+00 0.0000000000000000e+00 0.0000000000000000e+00  0.0000000000000000e+00 0.0000000000000000e+00 0.0000000000000000e+00  0.0000000000000000e+00 0.0000000000000000e+00 0.0000000000000000e+00  0.0000000000000000e+00 0.0000000000000000e+00 0.0000000000000000e+00  0.0000000000000000e+00 0.0000000000000000e+00 0.0000000000000000e+00  0.0000000000000000e+00 0.0000000000000000e+00 0.0000000000000000e+00  0.0000000000000000e+00 0.0000000000000000e+00 0.0000000000000000e+00  0.0000000000000000e+00 0.0000000000000000e+00 0.0000000000000000e+00  0.0000000000000000e+00 0.0000000000000000e+00 0.0000000000000000e+00  0.0000000000000000e+00 0.0000000000000000e+00 0.0000000000000000e+00  0.0000000000000000e+00 0.0000000000000000e+00 0.0000000000000000e+00  0.0000000000000000e+00 0.0000000000000000e+00 0.0000000000000000e+00  0.0000000000000000e+00 0.0000000000000000e+00 0.0000000000000000e+00  0.0000000000000000e+00 0.0000000000000000e+00 0.0000000000000000e+00  0.0000000000000000e+00 0.0000000000000000e+00 0.0000000000000000e+00  0.0000000000000000e+00 0.0000000000000000e+00 0.0000000000000000e+00  0.0000000000000000e+00 0.0000000000000000e+00 0.0000000000000000e+00  0.0000000000000000e+00 0.0000000000000000e+00 0.0000000000000000e+00  0.0000000000000000e+00 0.0000000000000000e+00 0.0000000000000000e+00  0.0000000000000000e+00 0.0000000000000000e+00 0.0000000000000000e+00  0.0000000000000000e+00 0.0000000000000000e+00 0.0000000000000000e+00  0.0000000000000000e+00 0.0000000000000000e+00 0.0000000000000000e+00  0.0000000000000000e+00 0.0000000000000000e+00 0.0000000000000000e+00  0.0000000000000000e+00 0.0000000000000000e+00 0.0000000000000000e+00  0.0000000000000000e+00 0.0000000000000000e+00 0.0000000000000000e+00  0.0000000000000000e+00 0.0000000000000000e+00 0.0000000000000000e+00  0.0000000000000000e+00 0.0000000000000000e+00 0.0000000000000000e+00  0.0000000000000000e+00 0.0000000000000000e+00 0.0000000000000000e+00  0.0000000000000000e+00 0.0000000000000000e+00 0.0000000000000000e+00  0.0000000000000000e+00 0.0000000000000000e+00 0.0000000000000000e+00  0.0000000000000000e+00 0.0000000000000000e+00 0.0000000000000000e+00  0.0000000000000000e+00 0.0000000000000000e+00 0.0000000000000000e+00  0.0000000000000000e+00 0.0000000000000000e+00 0.0000000000000000e+00  0.0000000000000000e+00 0.0000000000000000e+00 0.0000000000000000e+00  0.0000000000000000e+00 0.0000000000000000e+00 0.0000000000000000e+00  0.0000000000000000e+00 0.0000000000000000e+00 0.0000000000000000e+00  0.0000000000000000e+00 0.0000000000000000e+00 0.0000000000000000e+00  0.0000000000000000e+00 0.0000000000000000e+00 0.0000000000000000e+00  0.0000000000000000e+00 0.0000000000000000e+00 0.0000000000000000e+00  0.0000000000000000e+00 0.0000000000000000e+00 0.0000000000000000e+00  0.0000000000000000e+00 0.0000000000000000e+00 0.0000000000000000e+00  0.0000000000000000e+00 0.0000000000000000e+00 0.0000000000000000e+00  0.0000000000000000e+00 0.0000000000000000e+00 0.0000000000000000e+00  0.0000000000000000e+00 0.0000000000000000e+00 0.0000000000000000e+00  0.0000000000000000e+00 0.0000000000000000e+00 0.0000000000000000e+00  0.0000000000000000e+00 0.0000000000000000e+00 0.0000000000000000e+00  0.0000000000000000e+00 0.0000000000000000e+00 0.0000000000000000e+00  0.0000000000000000e+00 0.0000000000000000e+00 0.0000000000000000e+00  0.0000000000000000e+00 0.0000000000000000e+00 0.0000000000000000e+00  0.0000000000000000e+00 0.0000000000000000e+00 0.0000000000000000e+00  0.0000000000000000e+00 0.0000000000000000e+00 0.0000000000000000e+00  0.0000000000000000e+00 0.0000000000000000e+00 0.0000000000000000e+00  0.0000000000000000e+00 0.0000000000000000e+00 0.0000000000000000e+00  0.0000000000000000e+00 0.0000000000000000e+00 0.0000000000000000e+00  0.0000000000000000e+00 0.0000000000000000e+00 0.0000000000000000e+00  0.0000000000000000e+00 0.0000000000000000e+00 0.0000000000000000e+00  0.0000000000000000e+00 0.0000000000000000e+00 0.0000000000000000e+00  0.0000000000000000e+00 0.0000000000000000e+00 0.0000000000000000e+00  0.0000000000000000e+00 0.0000000000000000e+00 0.0000000000000000e+00  0.0000000000000000e+00 0.0000000000000000e+00 0.0000000000000000e+00  0.0000000000000000e+00 0.0000000000000000e+00 0.0000000000000000e+00  0.0000000000000000e+00 0.0000000000000000e+00 0.0000000000000000e+00  0.0000000000000000e+00 0.0000000000000000e+00 0.0000000000000000e+00  0.0000000000000000e+00 0.0000000000000000e+00 0.0000000000000000e+00  0.0000000000000000e+00 0.0000000000000000e+00 0.0000000000000000e+00  0.0000000000000000e+00 0.0000000000000000e+00 0.0000000000000000e+00  0.0000000000000000e+00 0.0000000000000000e+00 0.0000000000000000e+00  0.0000000000000000e+00 0.0000000000000000e+00 0.0000000000000000e+00  0.0000000000000000e+00 0.0000000000000000e+00 0.0000000000000000e+00  0.0000000000000000e+00 0.0000000000000000e+00 0.0000000000000000e+00  0.0000000000000000e+00 0.0000000000000000e+00 0.0000000000000000e+00  0.0000000000000000e+00 0.0000000000000000e+00 0.0000000000000000e+00  0.0000000000000000e+00 0.0000000000000000e+00 0.0000000000000000e+00  0.0000000000000000e+00 0.0000000000000000e+00 0.0000000000000000e+00  0.0000000000000000e+00 0.0000000000000000e+00 0.0000000000000000e+00  0.0000000000000000e+00 0.0000000000000000e+00 0.0000000000000000e+00  0.0000000000000000e+00 0.0000000000000000e+00 0.0000000000000000e+00  0.0000000000000000e+00 0.0000000000000000e+00 0.0000000000000000e+00  0.0000000000000000e+00 0.0000000000000000e+00 0.0000000000000000e+00  0.0000000000000000e+00 0.0000000000000000e+00 0.0000000000000000e+00  0.0000000000000000e+00 0.0000000000000000e+00 0.0000000000000000e+00  0.0000000000000000e+00 0.0000000000000000e+00 0.0000000000000000e+00  0.0000000000000000e+00 0.0000000000000000e+00 0.0000000000000000e+00  0.0000000000000000e+00 0.0000000000000000e+00 0.0000000000000000e+00  0.0000000000000000e+00 0.0000000000000000e+00 0.0000000000000000e+00  0.0000000000000000e+00 0.0000000000000000e+00 0.0000000000000000e+00  0.0000000000000000e+00 0.0000000000000000e+00 0.0000000000000000e+00  0.0000000000000000e+00 0.0000000000000000e+00 0.0000000000000000e+00  0.0000000000000000e+00 0.0000000000000000e+00 0.0000000000000000e+00  0.0000000000000000e+00 0.0000000000000000e+00 0.0000000000000000e+00  0.0000000000000000e+00 0.0000000000000000e+00 0.0000000000000000e+00  0.0000000000000000e+00 0.0000000000000000e+00 0.0000000000000000e+00  0.0000000000000000e+00 0.0000000000000000e+00 0.0000000000000000e+00  0.0000000000000000e+00 0.0000000000000000e+00 0.0000000000000000e+00  0.0000000000000000e+00 0.0000000000000000e+00 0.0000000000000000e+00  0.0000000000000000e+00 0.0000000000000000e+00 0.0000000000000000e+00  0.0000000000000000e+00 0.0000000000000000e+00 0.0000000000000000e+00  0.0000000000000000e+00 0.0000000000000000e+00 0.0000000000000000e+00  0.0000000000000000e+00 0.0000000000000000e+00 0.0000000000000000e+00  0.0000000000000000e+00 0.0000000000000000e+00 0.0000000000000000e+00  0.0000000000000000e+00 0.0000000000000000e+00 0.0000000000000000e+00  0.0000000000000000e+00 0.0000000000000000e+00 0.0000000000000000e+00  0.0000000000000000e+00 0.0000000000000000e+00 0.0000000000000000e+00  0.0000000000000000e+00 0.0000000000000000e+00 0.0000000000000000e+00  0.0000000000000000e+00 0.0000000000000000e+00 0.0000000000000000e+00  0.0000000000000000e+00 0.0000000000000000e+00 0.0000000000000000e+00  0.0000000000000000e+00 0.0000000000000000e+00 0.0000000000000000e+00  0.0000000000000000e+00 0.0000000000000000e+00 0.0000000000000000e+00  0.0000000000000000e+00 0.0000000000000000e+00 0.0000000000000000e+00  0.0000000000000000e+00 0.0000000000000000e+00 0.0000000000000000e+00  0.0000000000000000e+00 0.0000000000000000e+00 0.0000000000000000e+00  0.0000000000000000e+00 0.0000000000000000e+00 0.0000000000000000e+00  0.0000000000000000e+00 0.0000000000000000e+00 0.0000000000000000e+00  0.0000000000000000e+00 0.0000000000000000e+00 0.0000000000000000e+00  0.0000000000000000e+00 0.0000000000000000e+00 0.0000000000000000e+00  0.0000000000000000e+00 0.0000000000000000e+00 0.0000000000000000e+00  0.0000000000000000e+00 0.0000000000000000e+00 0.0000000000000000e+00  0.0000000000000000e+00 0.0000000000000000e+00 0.0000000000000000e+00  0.0000000000000000e+00 0.0000000000000000e+00 0.0000000000000000e+00  0.0000000000000000e+00 0.0000000000000000e+00 0.0000000000000000e+00  0.0000000000000000e+00 0.0000000000000000e+00 0.0000000000000000e+00  0.0000000000000000e+00 0.0000000000000000e+00 0.0000000000000000e+00  0.0000000000000000e+00 0.0000000000000000e+00 0.0000000000000000e+00  0.0000000000000000e+00 0.0000000000000000e+00 0.0000000000000000e+00  0.0000000000000000e+00 0.0000000000000000e+00 0.0000000000000000e+00  0.0000000000000000e+00 0.0000000000000000e+00 0.0000000000000000e+00  0.0000000000000000e+00 0.0000000000000000e+00 0.0000000000000000e+00  0.0000000000000000e+00 0.0000000000000000e+00 0.0000000000000000e+00  0.0000000000000000e+00 0.0000000000000000e+00 0.0000000000000000e+00  0.0000000000000000e+00 0.0000000000000000e+00 0.0000000000000000e+00  0.0000000000000000e+00 0.0000000000000000e+00 0.0000000000000000e+00  0.0000000000000000e+00 0.0000000000000000e+00 0.0000000000000000e+00  0.0000000000000000e+00 0.0000000000000000e+00 0.0000000000000000e+00  0.0000000000000000e+00 0.0000000000000000e+00 0.0000000000000000e+00  0.0000000000000000e+00 0.0000000000000000e+00 0.0000000000000000e+00  0.0000000000000000e+00 0.0000000000000000e+00 0.0000000000000000e+00  0.0000000000000000e+00 0.0000000000000000e+00 0.0000000000000000e+00  0.0000000000000000e+00 0.0000000000000000e+00 0.0000000000000000e+00  0.0000000000000000e+00 0.0000000000000000e+00 0.0000000000000000e+00  0.0000000000000000e+00 0.0000000000000000e+00 0.0000000000000000e+00  0.0000000000000000e+00 0.0000000000000000e+00 0.0000000000000000e+00  0.0000000000000000e+00 0.0000000000000000e+00 0.0000000000000000e+00  0.0000000000000000e+00 0.0000000000000000e+00 0.0000000000000000e+00  0.0000000000000000e+00 0.0000000000000000e+00 0.0000000000000000e+00  0.0000000000000000e+00 0.0000000000000000e+00 0.0000000000000000e+00  0.0000000000000000e+00 0.0000000000000000e+00 0.0000000000000000e+00  0.0000000000000000e+00 0.0000000000000000e+00 0.0000000000000000e+00  0.0000000000000000e+00 0.0000000000000000e+00 0.0000000000000000e+00  0.0000000000000000e+00 0.0000000000000000e+00 0.0000000000000000e+00  0.0000000000000000e+00 0.0000000000000000e+00 0.0000000000000000e+00  0.0000000000000000e+00 0.0000000000000000e+00 0.0000000000000000e+00  0.0000000000000000e+00 0.0000000000000000e+00 0.0000000000000000e+00  0.0000000000000000e+00 0.0000000000000000e+00 0.0000000000000000e+00  0.0000000000000000e+00 0.0000000000000000e+00 0.0000000000000000e+00  0.0000000000000000e+00 0.0000000000000000e+00 0.0000000000000000e+00  0.0000000000000000e+00 0.0000000000000000e+00 0.0000000000000000e+00  0.0000000000000000e+00 0.0000000000000000e+00 0.0000000000000000e+00  0.0000000000000000e+00 0.0000000000000000e+00 0.0000000000000000e+00  0.0000000000000000e+00 0.0000000000000000e+00 0.0000000000000000e+00  0.0000000000000000e+00 0.0000000000000000e+00 0.0000000000000000e+00  0.0000000000000000e+00 0.0000000000000000e+00 0.0000000000000000e+00  0.0000000000000000e+00 0.0000000000000000e+00 0.0000000000000000e+00  0.0000000000000000e+00 0.0000000000000000e+00 0.0000000000000000e+00  0.0000000000000000e+00 0.0000000000000000e+00 0.0000000000000000e+00  0.0000000000000000e+00 0.0000000000000000e+00 0.0000000000000000e+00  0.0000000000000000e+00 0.0000000000000000e+00 0.0000000000000000e+00  0.0000000000000000e+00 0.0000000000000000e+00 0.0000000000000000e+00  0.0000000000000000e+00 0.0000000000000000e+00 0.0000000000000000e+00  0.0000000000000000e+00 0.0000000000000000e+00 0.0000000000000000e+00  0.0000000000000000e+00 0.0000000000000000e+00 0.0000000000000000e+00  0.0000000000000000e+00 0.0000000000000000e+00 0.0000000000000000e+00  0.0000000000000000e+00 0.0000000000000000e+00 0.0000000000000000e+00  0.0000000000000000e+00 0.0000000000000000e+00 0.0000000000000000e+00  0.0000000000000000e+00 0.0000000000000000e+00 0.0000000000000000e+00  0.0000000000000000e+00 0.0000000000000000e+00 0.0000000000000000e+00  0.0000000000000000e+00 0.0000000000000000e+00 0.0000000000000000e+00  0.0000000000000000e+00 0.0000000000000000e+00 0.0000000000000000e+00  0.0000000000000000e+00 0.0000000000000000e+00 0.0000000000000000e+00  0.0000000000000000e+00 0.0000000000000000e+00 0.0000000000000000e+00  0.0000000000000000