<?xml version="1.0"?>
<VTKFile type="UnstructuredGrid"  version="0.1"  >
<UnstructuredGrid>
<Piece  NumberOfPoints="6393" NumberOfCells="12322">
<Points>
<DataArray  type="Float64"  NumberOfComponents="3"  format="ascii">0 0 0  0.00565897723304 0.0119630319131 0  0.0109302583077 0.016528374174 0  0.0161373003166 0.0198679610047 0  0.0213108339525 0.0225681694474 0  0.0264627665285 0.0248562047668 0  0.0315992080164 0.0268486522648 0  0.036723790638 0.0286148189238 0  0.0418388832102 0.0301999044977 0  0.0469461330457 0.0316353416158 0  0.0520467412399 0.032944048562 0  0.0571416160352 0.0341433556461 0  0.0622314644066 0.0352467527665 0  0.067316849809 0.0362649912945 0  0.0723982302175 0.0372068099224 0  0.07747598410540001 0.0380794303551 0  0.0825504287292 0.0388889062156 0  0.0876218333354 0.0396403750337 0  0.09269042891150001 0.0403382443214 0  0.0977564155284 0.0409863316577 0  0.102819967961 0.0415879719561 0  0.10788124006 0.0421461008503 0  0.112940368192 0.042663320391 0  0.117997473988 0.0431419514349 0  0.123052666557 0.0435840758796 0  0.128106044283 0.0439915710515 0  0.133157696314 0.0443661379567 0  0.13820770378 0.0447093246847 0  0.143256140825 0.045022545943 0  0.148303075458 0.0453070994763 0  0.153348570291 0.045564179959 0  0.158392683153 0.0457948908179 0  0.163435467618 0.0460002543518 0  0.168476973468 0.0461812204383 0  0.173517247083 0.0463386740606 0  0.178556331785 0.0464734418459 0  0.183594268136 0.0465862977675 0  0.1886310942 0.0466779681394 0  0.193666845774 0.046749136007 0  0.198701556591 0.0468004450206 0  0.203735258497 0.0468325028655 0  0.208767981616 0.0468458843074 0  0.213799754486 0.0468411339062 0  0.21883060419 0.0468187684403 0  0.223860556469 0.0467792790785 0  0.228889635825 0.0467231333311 0  0.233917865611 0.046650776807 0  0.238945268116 0.0465626347997 0  0.243971864638 0.0464591137216 0  0.248997675556 0.0463406024058 0  0.254022720388 0.0462074732876 0  0.25904701785 0.0460600834811 0  0.264070585905 0.0458987757605 0  0.269093441813 0.0457238794575 0  0.274115602173 0.0455357112824 0  0.27913708296 0.0453345760774 0  0.284157899565 0.0451207675083 0  0.289178066825 0.0448945687009 0  0.294197599058 0.0446562528274 0  0.299216510085 0.0444060836475 0  0.304234813264 0.0441443160085 0  0.309252521506 0.0438711963077 0  0.314269647306 0.043586962921 0  0.319286202755 0.043291846601 0  0.324302199568 0.0429860708459 0  0.329317649095 0.0426698522429 0  0.334332562341 0.0423434007884 0  0.339346949983 0.0420069201859 0  0.344360822379 0.0416606081237 0  0.34937418959 0.0413046565355 0  0.354387061386 0.0409392518424 0  0.359399447258 0.0405645751809 0  0.364411356435 0.0401808026153 0  0.369422797887 0.0397881053379 0  0.374433780342 0.0393866498563 0  0.37944431229 0.0389765981693 0  0.384454401992 0.0385581079323 0  0.389464057492 0.0381313326138 0  0.39447328662 0.0376964216411 0  0.399482097004 0.0372535205393 0  0.404490496072 0.0368027710615 0  0.409498491063 0.0363443113118 0  0.414506089028 0.0358782758615 0  0.419513296841 0.0354047958592 0  0.424520121201 0.0349239991347 0  0.429526568639 0.0344360102976 0  0.434532645521 0.0339409508301 0  0.439538358055 0.0334389391756 0  0.444543712293 0.0329300908227 0  0.449548714137 0.0324145183843 0  0.454553369342 0.0318923316735 0  0.45955768352 0.0313636377749 0  0.464561662143 0.0308285411136 0  0.469565310549 0.0302871435191 0  0.474568633941 0.0297395442877 0  0.479571637394 0.0291858402412 0  0.484574325854 0.0286261257828 0  0.489576704146 0.0280604929505 0  0.494578776972 0.0274890314683 0  0.499580548915 0.0269118287943 0  0.504582024442 0.0263289701677 0  0.509583207907 0.0257405386525 0  0.5145841035499999 0.0251466151805 0  0.519584715505 0.0245472785913 0  0.5245850477939999 0.0239426056709 0  0.529585104337 0.0233326711894 0  0.534584888948 0.0227175479358 0  0.53958440534 0.0220973067523 0  0.544583657125 0.0214720165668 0  0.5495826478169999 0.020841744424 0  0.554581380833 0.0202065555153 0  0.559579859493 0.0195665132075 0  0.564578087024 0.0189216790705 0  0.56957606656 0.0182721129033 0  0.5745738011430001 0.0176178727597 0  0.579571293727 0.0169590149726 0  0.584568547173 0.0162955941774 0  0.589565564258 0.0156276633345 0  0.59456234767 0.0149552737509 0  0.599558900014 0.014278475101 0  0.604555223806 0.0135973154468 0  0.609551321484 0.012911841257 0  0.6145471954 0.0122220974257 0  0.619542847825 0.0115281272901 0  0.624538280949 0.0108299726481 0  0.629533496883 0.0101276737744 0  0.634528497659 0.009421269437039999 0  0.639523285231 0.00871079691233 0  0.644517861474 0.00799629200015 0  0.649512228189 0.00727778903812 0  0.654506387099 0.00655532091554 0  0.659500339852 0.00582891908673 0  0.6644940880220001 0.00509861358402 0  0.66948763311 0.00436443303019 0  0.674480976542 0.0036264046506 0  0.679474119672 0.00288455428478 0  0.684467063783 0.00213890639779 0  0.689459810084 0.00138948409107 0  0.694452359717 0.000636309113005 0  0.699444713751 -0.000120598130869 0  0.7044368731839999 -0.000881218567989 0  0.709428838947 -0.00164553444921 0  0.714420611902 -0.00241352933956 0  0.719412192842 -0.00318518810924 0  0.72440358249 -0.00396049692502 0  0.729394781506 -0.00473944324175 0  0.734385790478 -0.00552201579425 0  0.7393766099320001 -0.00630820458942 0  0.744367240324 -0.00709800089858 0  0.749357682045 -0.007891397250019999 0  0.754347935423 -0.00868838742183 0  0.759338000718 -0.00948896643491 0  0.764327878126 -0.0102931305462 0  0.769317567779 -0.011100877242 0  0.774307069744 -0.0119122052319 0  0.779296384026 -0.0127271144421 0  0.784285510564 -0.0135456060098 0  0.789274449237 -0.0143676822773 0  0.794263199857 -0.015193346786 0  0.799251762178 -0.0160226042713 0  0.804240135889 -0.0168554606571 0  0.809228320617 -0.0176919230503 0  0.814216315929 -0.0185319997363 0  0.819204121327 -0.0193757001735 0  0.824191736256 -0.020223034989 0  0.829179160098 -0.0210740159736 0  0.834166392174 -0.0219286560775 0  0.839153431744 -0.0227869694056 0  0.844140278009 -0.0236489712135 0  0.84912693011 -0.0245146779033 0  0.854113387127 -0.0253841070194 0  0.8590996480799999 -0.0262572772446 0  0.864085711933 -0.0271342083962 0  0.869071577585 -0.0280149214225 0  0.874057243882 -0.0288994383987 0  0.879042709606 -0.0297877825238 0  0.884027973483 -0.0306799781168 0  0.889013034181 -0.0315760506135 0  0.8939978903070001 -0.0324760265632 0  0.898982540413 -0.0333799336253 0  0.90396698299 -0.0342878005666 0  0.908951216474 -0.0351996572575 0  0.913935239241 -0.0361155346701 0  0.91891904961 -0.037035464874 0  0.9239026458439999 -0.0379594810348 0  0.928886026146 -0.0388876174103 0  0.933869188665 -0.0398199093483 0  0.938852131491 -0.0407563932838 0  0.943834852657 -0.0416971067367 0  0.948817350141 -0.042642088309 0  0.953799621862 -0.0435913776823 0  0.958781665686 -0.0445450156158 0  0.963763479419 -0.0455030439437 0  0.968745060812 -0.0464655055728 0  0.973726407562 -0.0474324444805 0  0.978707517306 -0.0484039057127 0  0.98368838763 -0.0493799353813 0  0.988669016059 -0.0503605806627 0  0.993649400067 -0.0513458897951 0  0.998629537069 -0.0523359120771 0  0.993573196312 -0.0527999452929 0  0.98851710256 -0.0532592653592 0  0.98346125323 -0.0537139215745 0  0.978405645794 -0.0541639621771 0  0.973350277779 -0.0546094343431 0  0.968295146769 -0.0550503841847 0  0.963240250403 -0.0554868567477 0  0.958185586377 -0.0559188960095 0  0.953131152441 -0.0563465448769 0  0.948076946403 -0.0567698451841 0  0.943022966127 -0.0571888376903 0  0.937969209534 -0.0576035620771 0  0.9329156746 -0.0580140569465 0  0.927862359359 -0.0584203598184 0  0.922809261902 -0.0588225071278 0  0.917756380376 -0.0592205342225 0  0.9127037129859999 -0.0596144753603 0  0.9076512579929999 -0.0600043637068 0  0.902599013718 -0.0603902313316 0  0.897546978536 -0.0607721092068 0  0.892495150882 -0.0611500272028 0  0.8874435292490001 -0.0615240140864 0  0.882392112187 -0.061894097517 0  0.8773408983049999 -0.0622603040439 0  0.87228988627 -0.06262265910290001 0  0.867239074806 -0.062981187013 0  0.8621884627 -0.0633359109732 0  0.857138048792 -0.0636868530587 0  0.852087831987 -0.0640340342178 0  0.847037811244 -0.06437747426779999 0  0.841987985585 -0.06471719189150001 0  0.836938354091 -0.0650532046333 0  0.831888915902 -0.0653855288953 0  0.826839670218 -0.06571417993299999 0  0.8217906163000001 -0.0660391718515 0  0.81674175347 -0.06636051760099999 0  0.811693081109 -0.0666782289721 0  0.80664459866 -0.066992316592 0  0.801596305629 -0.06730278991910001 0  0.7965482015799999 -0.06760965723869999 0  0.791500286142 -0.0679129256579 0  0.786452559003 -0.0682126011006 0  0.781405019916 -0.0685086883019 0  0.776357668695 -0.0688011908036 0  0.771310505217 -0.0690901109477 0  0.766263529423 -0.0693754498714 0  0.761216741316 -0.0696572075012 0  0.756170140965 -0.0699353825464 0  0.7511237285 -0.07020997249329999 0  0.746077504118 -0.070480973599 0  0.741031468081 -0.0707483808844 0  0.735985620713 -0.0710121881274 0  0.730939962407 -0.0712723878565 0  0.72589449362 -0.0715289713429 0  0.720849214876 -0.07178192859349999 0  0.715804126765 -0.0720312483432 0  0.710759229945 -0.0722769180468 0  0.705714525141 -0.07251892387099999 0  0.700670013145 -0.0727572506862 0  0.695625694818 -0.0729918820572 0  0.690581571092 -0.073222800235 0  0.6855376429659999 -0.0734499861469 0  0.680493911508 -0.07367341938749999 0  0.675450377859 -0.07389307820840001 0  0.67040704323 -0.07410893950810001 0  0.665363908902 -0.07432097882160001 0  0.66032097623 -0.0745291703094 0  0.655278246641 -0.074733486746 0  0.650235721635 -0.0749338995087 0  0.645193402785 -0.0751303785652 0  0.64015129174 -0.07532289246109999 0  0.635109390224 -0.0755114083072 0  0.630067700036 -0.07569589176579999 0  0.625026223053 -0.07587630703709999 0  0.619984961228 -0.0760526168446 0  0.614943916593 -0.0762247824206 0  0.609903091258 -0.07639276349 0  0.6048624874139999 -0.0765565182552 0  0.599822107332 -0.0767160033789 0  0.594781953366 -0.07687117396699999 0  0
[...]
<PointData  Scalars="u"> 
<DataArray  type="Float64"  Name="u"  format="ascii">5.6867713119720619e+01  5.3401166045293685e+01  5.0783922577942612e+01  4.8503433301129554e+01  4.6396798848040589e+01  4.4438565567945552e+01  4.2609575174842092e+01  4.0884312907429546e+01  3.9253044859542804e+01  3.7700725452891405e+01  3.6229211126664978e+01  3.4827231891033215e+01  3.3492747712141579e+01  3.2220617755488391e+01  3.1006527023912756e+01  2.9845027165483284e+01  2.8735957860237193e+01  2.7674510387981805e+01  2.6659328850437674e+01  2.5685562902932876e+01  2.4755941789304561e+01  2.3865329708241262e+01  2.3010212808929719e+01  2.2189966469535829e+01  2.1400778466182540e+01  2.0646111965500733e+01  1.9923008373205338e+01  1.9226126520935196e+01  1.8556816179243906e+01  1.7916998016274729e+01  1.7303428952218532e+01  1.6712033338652873e+01  1.6145707269267248e+01  1.5600493671559899e+01  1.5075359819276704e+01  1.4573046853244080e+01  1.4087563377268557e+01  1.3620417625211360e+01  1.3173891305722721e+01  1.2745905867295823e+01  1.2331799147531472e+01  1.1933242826422807e+01  1.1552947908778961e+01  1.1188107901230023e+01  1.0835027045306413e+01  1.0497791672803935e+01  1.0171888531721699e+01  9.8605427089225746e+00  9.5609663807752518e+00  9.2694768773831413e+00  8.9886624509838828e+00  8.7214866207534705e+00  8.4621984250245195e+00  8.2150785095513505e+00  7.9758060535247974e+00  7.7476379201101446e+00  7.5265903683625250e+00  7.3153128679695216e+00  7.1104673159352636e+00  6.9114134572517019e+00  6.7230139556326227e+00  6.5408671258889832e+00  6.3673121741922962e+00  6.1985259758914877e+00  6.0372965192134176e+00  5.8798194721903814e+00  5.7308519638757973e+00  5.5864197200268109e+00  5.4472950582272537e+00  5.3141066777653831e+00  5.1865894966939257e+00  5.0619749735487005e+00  4.9441006007930604e+00  4.8287228923766587e+00  4.7172667267032375e+00  4.6131561587240419e+00  4.5115206452693535e+00  4.4155011410994680e+00  4.3216430245921069e+00  4.2298327566056706e+00  4.1435553473990447e+00  4.0617336922658911e+00  3.9810672475950799e+00  3.9053052768746910e+00  3.8308018252218781e+00  3.7607644887955956e+00  3.6913962692813267e+00  3.6276113848847764e+00  3.5645169650792439e+00  3.5060473830867802e+00  3.4484451852434685e+00  3.3945453017409686e+00  3.3411137134696252e+00  3.2912008782272131e+00  3.2443938661907290e+00  3.1992732054277209e+00  3.1549193959131645e+00  3.1139389230976509e+00  3.0731132918139821e+00  3.0360093632622669e+00  2.9988444492855590e+00  2.9626312726992676e+00  2.9301690213116092e+00  2.9002701805140263e+00  2.8697445116310285e+00  2.8423516255207986e+00  2.8145788413378940e+00  2.7887895822743918e+00  2.7650784127063321e+00  2.7414259681530084e+00  2.7203954643818351e+00  2.6986469189810078e+00  2.6797482502879117e+00  2.6625639202747657e+00  2.6444979067553041e+00  2.6292520951649041e+00  2.6138792912168087e+00  2.6010979589838019e+00  2.5874578029387876e+00  2.5759210994333497e+00  2.5634950083302868e+00  2.5535372348923726e+00  2.5447577588838532e+00  2.5366844534092405e+00  2.5292662281758207e+00  2.5212314884789322e+00  2.5152982657412983e+00  2.5084852233328028e+00  2.5041113474115546e+00  2.4995115053343691e+00  2.4951842792531105e+00  2.4925280914841950e+00  2.4895568561409753e+00  2.4871326874489812e+00  2.4832198124083216e+00  2.4815686154425882e+00  2.4787275265362489e+00  2.4777354139177348e+00  2.4776542993798683e+00  2.4777700979193904e+00  2.4773793655052594e+00  2.4775849471416684e+00  2.4787637162206990e+00  2.4787759165746794e+00  2.4803109859555983e+00  2.4807215113489898e+00  2.4820452152632630e+00  2.4834237540364548e+00  2.4835393301422815e+00  2.4849339687391030e+00  2.4845517753678514e+00  2.4859153908917588e+00  2.4855833948266741e+00  2.4840838114603510e+00  2.4832003927587185e+00  2.4834818415354327e+00  2.4821462862125649e+00  2.4816341505850352e+00  2.4782709505111038e+00  2.4739264446533586e+00  2.4709996311263747e+00  2.4655358296627492e+00  2.4607694394571609e+00  2.4537366622367771e+00  2.4444540438337716e+00  2.4349880867946183e+00  2.4264811813923672e+00  2.4153720338222588e+00  2.4029857099728273e+00  2.3867819221769193e+00  2.3698985701055961e+00  2.3522551647286072e+00  2.3310028608894982e+00  2.3090398752756935e+00  2.2833959131853798e+00  2.2549063354615528e+00  2.2238985410047638e+00  2.1910214158604195e+00  2.1533940477959890e+00  2.1139666909030081e+00  2.0699753578826781e+00  2.0235245222550029e+00  1.9714840752622669e+00  1.9163122699960249e+00  1.8549161210496787e+00  1.7905728320889331e+00  1.7207970343057395e+00  1.6474919195075286e+00  1.5675999407708832e+00  1.4838105371341297e+00  1.3932213021499420e+00  1.2991206719806077e+00  1.1986558155858831e+00  1.0943071470961774e+00  9.8808763253982990e-01  8.8005053758502505e-01  7.7286369495910223e-01  6.7588713648421572e-01  6.0079653662119092e-01  6.2775570317017315e-01  1.0495002136124933e+00  1.3488929042572388e+00  1.6081284731159557e+00  1.8464199407831632e+00  2.0637938727137382e+00  2.2665726167157616e+00  2.4552785446207746e+00  2.6311429481711088e+00  2.7975105946732350e+00  2.9522794111262933e+00  3.0988599787534770e+00  3.2374272388174701e+00  3.3660030969699619e+00  3.4881191025321185e+00  3.6015405343543936e+00  3.7104406133250132e+00  3.8134459557936466e+00  3.9138814123073700e+00  4.0073595228075929e+00  4.0950065084591527e+00  4.1803586896982807e+00  4.2601593249723644e+00  4.3378454706428498e+00  4.4106797669808397e+00  4.4826330112160893e+00  4.5500220840321752e+00  4.6139182979444460e+00  4.6769792860729922e+00  4.7364090174965128e+00  4.7958718653517947e+00  4.8530403943379357e+00  4.9078995963942482e+00  4.9620910762670469e+00  5.0139456038738279e+00  5.0656619061199217e+00  5.1154314791247302e+00  5.1642940668301947e+00  5.2127240770781231e+00  5.2597932391085482e+00  5.3058057518873607e+00  5.3507733073849444e+00  5.3970831912077077e+00  5.4421082033946488e+00  5.4895415084658836e+00  5.5341753228469441e+00  5.5796618952522250e+00  5.6231573792983065e+00  5.6680491259900814e+00  5.7118355824695097e+00  5.7576272445631513e+00  5.8015641266911988e+00  5.8461582950114428e+00  5.8912656895096562e+00  5.9363851302147292e+00  5.9810906413537106e+00  6.0283529407401133e+00  6.0735164100389474e+00  6.1181220310282249e+00  6.1649382455713715e+00  6.2114530413963021e+00  6.2605881508716843e+00  6.3081028943574715e+00  6.3569550108672992e+00  6.4082663779693005e+00  6.4586094459644450e+00  6.5085730639297550e+00  6.5613913514636231e+00  6.6128046006621855e+00  6.6638474421005016e+00  6.7176040152055778e+00  6.7713925613104360e+00  6.8281994710361529e+00  6.8837502470291838e+00  6.9410745788597366e+00  7.0011710637574263e+00  7.0613036135404208e+00  7.1207414478305262e+00  7.1828044838782592e+00  7.2446126323750599e+00  7.3102583670842449e+00  7.3762449974665358e+00  7.4418418825268944e+00  7.5099251253239609e+00  7.5779887398289771e+00  7.6467680763203250e+00  7.7167253033132335e+00  7.7901106906554709e+00  7.8636793984333941e+00  7.9398221278708654e+00  8.0188872348756437e+00  8.0977670037474887e+00  8.1796246811382307e+00  8.2644756273181326e+00  8.3484929026182222e+00  8.4349367568645270e+00  8.5252838851064769e+00  8.6161018581175579e+00  8.7076171029078111e+00  8.8003539967744047e+00  8.8973400938762097e+00  8.9947154026072607e+00  9.0955402853751561e+00  9.1983752890009285e+00  9.3060256715502447e+00  9.4149577208582524e+00  9.5247054281077972e+00  9.6385540131192311e+00  9.7567471534797932e+00  9.8766019435097476e+00  9.9971774349079539e+00  1.0122225182416383e+01  1.0249195219461745e+01  1.0379893508972627e+01  1.0515526187440406e+01  1.0652715377435813e+01  1.0795195535977543e+01  1.0939411122694434e+01  1.1089325984639659e+01  1.1241335690312587e+01  1.1398946530061313e+01  1.1558488215865482e+01  1.1724191727378704e+01  1.1892384583209244e+01  1.2066587007854546e+01  1.2243347822705342e+01  1.2425938714644717e+01  1.2614953631358601e+01  1.2805805041621833e+01  1.3004696000165561e+01  1.3206088392683524e+01  1.3413820081172670e+01  1.3629149103478683e+01  1.3849195097657374e+01  1.4076407339120941e+01  1.4309995519733762e+01  1.4547186853308657e+01  1.4792476439017038e+01  1.5043709709155182e+01  1.5303058532868087e+01  1.5572676514370189e+01  1.5847434807952832e+01  1.6128069235013161e+01  1.6418501963027015e+01  1.6715724591057722e+01  1.7022908867006286e+01  1.7341240383337691e+01  1.7666803144805431e+01  1.8000829807500409e+01  1.8345927592895187e+01  1.8702249417487817e+01  1.9067903289929369e+01  1.9446031456464659e+01  1.9835489077434122e+01  2.0234054858531763e+01  2.0645537330406572e+01  2.1067715469963268e+01  2.1505392835445061e+01  2.1954782406932210e+01  2.2419772034981431e+01  2.2897896436435264e+01  2.3393039599745222e+01  2.3901182460200218e+01  2.4423300013821692e+01  2.4962992564362960e+01  2.5522305285045896e+01  2.6095962588010888e+01  2.6686767805848959e+01  2.7299540768232291e+01  2.7929717269727526e+01  2.8580527073465905e+01  2.9250002434588829e+01  2.9940560136842667e+01  3.0653179297342611e+01  3.1389606523163202e+01  3.2150701978586312e+01  3.2934057877238089e+01  3.3743328431703226e+01  3.4575490885092982e+01  3.5434073619682877e+01  3.6320682967305807e+01  3.7234855314261210e+01  3.8179364727841438e+01  3.9153292877093861e+01  4.0157058675269411e+01  4.1191861840647981e+01  4.2257482653833200e+01  4.3354599049451380e+01  4.4482832685440400e+01  4.5642231526062261e+01  4.6833707203260026e+01  4.8053544199383609e+01  4.9303645498693939e+01  5.0577644151795567e+01  5.1881670397015561e+01  5.3184519381715425e+01  5.4475708008864643e+01  5.5743382977648409e+01  5.6875943885933893e+01  2.4501918905392547e+01  0.0000000000000000e+00  0.0000000000000000e+00  0.0000000000000000e+00  5.5472611648129686e+01  5.7311865587074017e+01  2.4412029418071263e+01  2.4409571713423734e+01  2.4257888808507499e+01  2.4187111796365244e+01  2.4005479855439667e+01  2.3797457087740117e+01  2.3509183716004120e+01  2.3312536137911593e+01  2.3051181213834258e+01  2.2709818913802373e+01  2.2117434603531745e+01  2.1490945077060861e+01  2.2037585113434751e+01  2.3327054214930875e+01  2.0140521970098970e+01  0.0000000000000000e+00  0.0000000000000000e+00  0.0000000000000000e+00  0.0000000000000000e+00  0.0000000000000000e+00  0.0000000000000000e+00  0.0000000000000000e+00  0.0000000000000000e+00  0.0000000000000000e+00  0.0000000000000000e+00  0.0000000000000000e+00  0.0000000000000000e+00  0.0000000000000000e+00  0.0000000000000000e+00  0.0000000000000000e+00  0.0000000000000000e+00  0.0000000000000000e+00  0.0000000000000000e+00  0.0000000000000000e+00  0.0000000000000000e+00  0.0000000000000000e+00  0.0000000000000000e+00  0.0000000000000000e+00  0.0000000000000000e+00  0.0000000000000000e+00  0.0000000000000000e+00  0.0000000000000000e+00  0.0000000000000000e+00  0.0000000000000000e+00  0.0000000000000000e+00  2.3478724394229985e+01  2.1783642784547514e+01  2.1255855120621479e+01  2.2111833777965483e+01  2.2455404859558229e+01  2.3250796522264014e+01  2.3317859400988652e+01  2.3652858437582879e+01  2.3941407438619780e+01  2.4158063381718829e+01  2.4215699758146442e+01  2.4270558578898431e+01  2.4377780831838265e+01  2.4488804394457865e+01  2.4512816884048441e+01  2.3545075432480548e+01  2.5403012563658283e+01  2.1128852098111800e+01  2.5754562242057172e+01  2.1785414203983969e+01  2.2705261871330315e+01  2.4487686607857452e+01  2.7523559468839544e+01  2.0579073980243216e+01  2.6043642764025783e+01  1.9674015754989831e+01  1.3247940754702551e+01  1.8840927846947658e+01  2.1152093520644822e+01  2.7834071495443816e+01  1.4577555489229480e+01  1.6954666216886686e+01  2.8587600402829260e+01  3.4352663572984731e+01  1.9321144839032396e+01  1.0814487233286991e+01  1.6915852060368575e+01  2.7182115062496468e+01  8.0607544293685294e+00  8.6728551483309015e+00  6.9123276838484458e+00  9.6033659150978679e+00  1.9745962027708217e+01  3.0007712913422949e+01  4.1240791151000217e+01  1.9888387795687176e+01  1.1761727271925329e+01  7.8409403744357364e+00  5.8502008212579089e+00  5.1288307470545540e+00  4.0226368309983265e+00  3.6362538107308886e+01  3.3621237900188902e+01  4.0149277020172258e+00  1.6613200864126423e+01  5.3824983567087372e+00  1.0418653317382667e+01  2.9308289947328042e+01  4.2261432061134407e+01  1.5710158357500775e+01  1.8714544455535417e+01  4.5030296603486564e+00  1.3238217132339743e+01  9.7533545574147631e+00  7.7376337256984300e+00  6.4680938827138190e+00  5.4506103921415612e+00  1.7809773121910684e+01  3.1578193971818695e+01  4.3475939164752493e+00  3.6244371273856939e+00  3.2262654141722242e+00  2.1158735394398779e+01  2.8790468399958962e+00  2.5429780493804728e+00  1.5496746375799468e+01  6.0918076228105367e+00  8.7138377298188967e+00  1.9980157143087600e+00  1.1810790234202205e+01  3.6346095251926283e+00  1.2415523062876124e+01  1.0306134262337379e+01  4.2478465300329038e+00  3.7305030911409176e+01  2.6751933949908750e+01  1.2466917264980822e+01  1.6257310491220185e+01  1.8967239756976298e+01  2.8815785181202301e+01  4.4585237948556461e+01  3.0873280921320130e+00  2.8978102206766629e+00  3.6827725145095362e+00  7.8272203428835390e+00  8.9564734491525133e+00  7.9329836654663115e+00  4.1119378335115528e+01  2.7003398091031618e+00  2.6476104669752476e+00  7.1136184794975641e+00  6.5090138974670770e+00  2.3431379513818435e+01  5.0548514604372180e+01  3.0105571705953493e+00  6.0247632781300693e+00  5.5240293130028428e+00  1.8019995795541860e+01  2.1807893459961988e+01  4.6876452550943235e+01  3.2490053950199226e+01  2.5379989423295997e+00  2.3810245917953616e+00  1.9731945288970236e+00  4.6895642805751763e+00  1.1661061189114548e+01  4.8254695892668531e+00  6.1956778071012986e+00  1.6348168776515795e+01  2.7380126810712477e+00  2.4625695888561914e+01  1.3121095265865151e+01  7.9636668671617592e+00  7.6494464078946134e+00  9.9181476730005471e+00  1.3647462253606568e+01  3.5494749373030863e+00  1.5412849042166171e+01  2.9168199810440290e+00  3.9278123829356424e+01  3.0693481160281446e+00  3.4277682659280839e+00  1.8118505631379040e+01  1.9932958239391677e+01  1.3641381745273178e+00  1.0982018919428519e+01  2.4824089287200650e+01  5.0868966555510173e+00  5.3758266995443989e+01  2.6004930530349739e+00  1.4256400605166018e+01  4.1723635158421679e+00  1.2199904172446576e+01  2.1606754179812416e+01  1.4818695389983269e+01  2.4201972790915896e+01  9.2903915337495420e+00  1.8594785991664302e+00  8.1980815460836407e+00  2.4698483150346533e+01  2.2636768441762488e+01  2.5595537230671224e+00  2.5000532446061690e+01  2.8365185724556802e+01  2.8572684059925077e+01  2.6825922856697386e+00  7.3821194752269230e+00  1.0058294870245875e+01  2.5972839737771816e+00  4.0689795983791059e+00  1.5883098269350638e+01  4.5644177907185913e+01  3.6270240824220494e+01  2.3651738002121046e+01  2.4432591931321809e+01  2.5406569981481368e+00  6.7208844583672560e+00  3.6072775631168135e+00  8.2432369183375687e-01  1.9444271152345774e+01  1.8037997020383628e+01  1.7872435932320215e+01  1.1629135998549346e+01  6.1512708146059536e+00  5.7010594447070355e+00  1.7463709219188615e+01  2.9710247630708572e+01  2.4182973431177790e+00  2.8290104633800354e+01  1.4704776749403681e+01  1.8580057048920768e+01  2.2589478700270011e+01  2.2587852564480521e+01  2.5286215422937031e+00  5.0899756471957289e+00  2.4625928949328465e+01  1.5307529478444264e+01  1.8278131835493287e+01  2.6983885880582319e+00  2.8107091252101579e+00  2.1164858468328078e+00  2.3258427978001510e+01  2.6748502645373474e+01  6.5782384305705897e+00  1.2963056469194338e+01  1.4249955012565003e+01  8.0754901992697956e+00  1.6715111794094970e+01  1.1083214673252513e+01  5.3275327277095279e+01  4.7924156770066402e+00  2.3931512177967193e+01  2.5201825804856657e+01  8.7674913843801541e+00  7.7485478250864199e+00  6.4821826786354002e+00  7.0301563182116897e+00  1.6520445294973776e+01  2.0974226207248915e+01  6.4300964472613966e+00  3.1699579885102764e+01  3.5805343040933693e+01  2.5727619719701565e+01  2.0873357065516569e+01  2.5190581390623104e+00  4.4032372836075320e+00  2.1920025572376133e+01  2.2826479037919922e+00  2.6047358579483113e+01  4.3888047189528514e+01  2.5106605766089210e+01  1.8859552441493022e+01  5.6518221303372398e+00  9.3809679505214021e+00  1.6212748585156107e+00  5.3202590347222998e+00  2.2762800929257338e+01  2.4209960665084974e+01  3.0710600809737918e+00  1.7071008097953726e+01  7.7736609016106293e+00  1.4289239631107636e+01  2.2344569544354290e+01  1.4155494619638864e+01  8.2972816533860794e+00  1.6372626621974045e+00  8.4823121436287376e+00  3.3091698238378733e+01  3.6178439809927059e+00  1.0782969046295136e+01  2.0220108689723020e+01  2.3467293050562905e+01  1.2804900091803331e+01  1.1387451435027348e+01  4.4564337128302540e+00  3.7783896409292921e+00  2.3574820832438530e+01  4.4894685541562085e+00  6.3345834760538073e+00  8.3715470150352971e+00  4.3864502384610464e+00  1.9341664150908727e+01  5.9034444307095280e+00  8.3155785454995801e+00  2.4814462016736680e+00  2.5400249908792812e+01  1.3935708094172757e+01  1.9838311546803208e+01  2.1589985674586487e+01  1.0519889558400207e+01  2.0518719560451999e+01  2.5789898709887304e+00  2.5304049224298129e+00  2.3311656970970652e+01  2.1901646284278385e+01  2.2676086350242496e+01  3.1988992755369141e+00  1.9465696194493944e+01  1.7905235059410622e+01  2.8588002689534480e+00  2.5127546210868004e+00  5.0560030652329338e+01  5.4848823852333703e+00  6.2808751886474683e+00  3.3390609896087233e+00  8.3766161469447766e+00  6.7788112871873407e+00  2.4607286837217369e+01  1.0308047234505185e+01  1.7225910825615685e+01  1.2978131175543320e+01  1.0209572310112893e+01  2.3858251840865339e+01  5.9520361897565612e+00  2.6803813336089473e+01  2.0214063373806979e+01  9.5269492834543108e+00  1.1283196470089937e+01  1.8944933464852294e+00  1.5519127336657824e+01  7.1258889945237511e+00  8.5974138368175907e+00  3.9567566174615024e+01  2.1424905046484440e+01  1.6361802082258418e+01  3.2464348614169758e+01  2.0975820578251336e+00  2.3696399083575873e+01  5.6361131668207300e+01  5.3616368745366927e+01  5.0122536487069995e+00  3.1390827146973797e+00  1.7470059407729181e+01  9.1014452291699719e+00  1.8434976188634959e+01  6.9791632015731384e+00  2.3510138331267754e+01  3.7626136771193628e+00  3.8557752142033905e+01  5.2139416412444888e+00  3.1236755127448149e+01  8.9440131490769226e-01  6.5664051233256204e+00  4.9549217983269811e+00  5.0267715750425888e+00  1.1549199722248762e+01  1.8638465327034208e+00  2.2903040544645020e+01  2.9344602961976168e+01  3.0924533137916502e+01  9.8767600931389332e-01  1.2646905967808674e+01  2.5813900418828979e+01  1.2313856244328861e+01  5.1001753708249389e+01  2.4717653067353410e+01  1.5505621299367380e+01  1.9350586774987971e+01  1.7594562039772082e+01  2.0514972626689190e+01  1.5117221400252291e+01  1.6024247365098102e+01  3.3990495107350270e+01  2.7432060265075728e+00  2.4321227369215053e+00  1.5264761712605496e+01  2.2786837843471094e+01  1.0839902038351509e+01  1.5847573665921830e+01  2.5192152681868414e+01  2.4853833897524442e+01  5.1034654306633378e+00  2.5054272430642457e+00  2.5036907142063040e+01  1.2784007964947760e+01  2.4958416585527427e+01  4.2970465406767211e+00  2.6063126663326295e+00  1.6440055594395538e+01  1.8148476676233379e+01  2.3771310955212595e+01  8.9386858587207474e+00  2.6866287528200190e+00  2.3958524323533112e+01  1.4877954021789312e+01  3.0212811951517793e+00  3.7301165506831384e+00  7.4503890618763826e+00  9.0865875096568232e+00  5.4596678479820486e+00  4.0084656276334925e+01  8.0242362272292045e+00  2.6982609050689881e+01  6.4847931345657832e+00  2.3676493138578163e+01  1.1286514729522649e+01  2.4907540649669031e+01  1.8656154452662694e+01  1.0115780637492980e+01  4.5627425268964394e+00  1.6737241848012905e+00  2.2419022387389663e+01  7.1848872687502574e+00  6.8373944018651329e+00  6.5563170144954590e+00  6.2676221199594595e+00  1.3707251904261795e+00  1.2045091818034933e+01  3.1493820938610604e+00  1.7901944894969773e+01  1.6211392227868814e+01  1