<?xml version="1.0"?>
<VTKFile type="UnstructuredGrid"  version="0.1"  >
<UnstructuredGrid>
<Piece  NumberOfPoints="6393" NumberOfCells="12322">
<Points>
<DataArray  type="Float64"  NumberOfComponents="3"  format="ascii">0 0 0  0.00565897723304 0.0119630319131 0  0.0109302583077 0.016528374174 0  0.0161373003166 0.0198679610047 0  0.0213108339525 0.0225681694474 0  0.0264627665285 0.0248562047668 0  0.0315992080164 0.0268486522648 0  0.036723790638 0.0286148189238 0  0.0418388832102 0.0301999044977 0  0.0469461330457 0.0316353416158 0  0.0520467412399 0.032944048562 0  0.0571416160352 0.0341433556461 0  0.0622314644066 0.0352467527665 0  0.067316849809 0.0362649912945 0  0.0723982302175 0.0372068099224 0  0.07747598410540001 0.0380794303551 0  0.0825504287292 0.0388889062156 0  0.0876218333354 0.0396403750337 0  0.09269042891150001 0.0403382443214 0  0.0977564155284 0.0409863316577 0  0.102819967961 0.0415879719561 0  0.10788124006 0.0421461008503 0  0.112940368192 0.042663320391 0  0.117997473988 0.0431419514349 0  0.123052666557 0.0435840758796 0  0.128106044283 0.0439915710515 0  0.133157696314 0.0443661379567 0  0.13820770378 0.0447093246847 0  0.143256140825 0.045022545943 0  0.148303075458 0.0453070994763 0  0.153348570291 0.045564179959 0  0.158392683153 0.0457948908179 0  0.163435467618 0.0460002543518 0  0.168476973468 0.0461812204383 0  0.173517247083 0.0463386740606 0  0.178556331785 0.0464734418459 0  0.183594268136 0.0465862977675 0  0.1886310942 0.0466779681394 0  0.193666845774 0.046749136007 0  0.198701556591 0.0468004450206 0  0.203735258497 0.0468325028655 0  0.208767981616 0.0468458843074 0  0.213799754486 0.0468411339062 0  0.21883060419 0.0468187684403 0  0.223860556469 0.0467792790785 0  0.228889635825 0.0467231333311 0  0.233917865611 0.046650776807 0  0.238945268116 0.0465626347997 0  0.243971864638 0.0464591137216 0  0.248997675556 0.0463406024058 0  0.254022720388 0.0462074732876 0  0.25904701785 0.0460600834811 0  0.264070585905 0.0458987757605 0  0.269093441813 0.0457238794575 0  0.274115602173 0.0455357112824 0  0.27913708296 0.0453345760774 0  0.284157899565 0.0451207675083 0  0.289178066825 0.0448945687009 0  0.294197599058 0.0446562528274 0  0.299216510085 0.0444060836475 0  0.304234813264 0.0441443160085 0  0.309252521506 0.0438711963077 0  0.314269647306 0.043586962921 0  0.319286202755 0.043291846601 0  0.324302199568 0.0429860708459 0  0.329317649095 0.0426698522429 0  0.334332562341 0.0423434007884 0  0.339346949983 0.0420069201859 0  0.344360822379 0.0416606081237 0  0.34937418959 0.0413046565355 0  0.354387061386 0.0409392518424 0  0.359399447258 0.0405645751809 0  0.364411356435 0.0401808026153 0  0.369422797887 0.0397881053379 0  0.374433780342 0.0393866498563 0  0.37944431229 0.0389765981693 0  0.384454401992 0.0385581079323 0  0.389464057492 0.0381313326138 0  0.39447328662 0.0376964216411 0  0.399482097004 0.0372535205393 0  0.404490496072 0.0368027710615 0  0.409498491063 0.0363443113118 0  0.414506089028 0.0358782758615 0  0.419513296841 0.0354047958592 0  0.424520121201 0.0349239991347 0  0.429526568639 0.0344360102976 0  0.434532645521 0.0339409508301 0  0.439538358055 0.0334389391756 0  0.444543712293 0.0329300908227 0  0.449548714137 0.0324145183843 0  0.454553369342 0.0318923316735 0  0.45955768352 0.0313636377749 0  0.464561662143 0.0308285411136 0  0.469565310549 0.0302871435191 0  0.474568633941 0.0297395442877 0  0.479571637394 0.0291858402412 0  0.484574325854 0.0286261257828 0  0.489576704146 0.0280604929505 0  0.494578776972 0.0274890314683 0  0.499580548915 0.0269118287943 0  0.504582024442 0.0263289701677 0  0.509583207907 0.0257405386525 0  0.5145841035499999 0.0251466151805 0  0.519584715505 0.0245472785913 0  0.5245850477939999 0.0239426056709 0  0.529585104337 0.0233326711894 0  0.534584888948 0.0227175479358 0  0.53958440534 0.0220973067523 0  0.544583657125 0.0214720165668 0  0.5495826478169999 0.020841744424 0  0.554581380833 0.0202065555153 0  0.559579859493 0.0195665132075 0  0.564578087024 0.0189216790705 0  0.56957606656 0.0182721129033 0  0.5745738011430001 0.0176178727597 0  0.579571293727 0.0169590149726 0  0.584568547173 0.0162955941774 0  0.589565564258 0.0156276633345 0  0.59456234767 0.0149552737509 0  0.599558900014 0.014278475101 0  0.604555223806 0.0135973154468 0  0.609551321484 0.012911841257 0  0.6145471954 0.0122220974257 0  0.619542847825 0.0115281272901 0  0.624538280949 0.0108299726481 0  0.629533496883 0.0101276737744 0  0.634528497659 0.009421269437039999 0  0.639523285231 0.00871079691233 0  0.644517861474 0.00799629200015 0  0.649512228189 0.00727778903812 0  0.654506387099 0.00655532091554 0  0.659500339852 0.00582891908673 0  0.6644940880220001 0.00509861358402 0  0.66948763311 0.00436443303019 0  0.674480976542 0.0036264046506 0  0.679474119672 0.00288455428478 0  0.684467063783 0.00213890639779 0  0.689459810084 0.00138948409107 0  0.694452359717 0.000636309113005 0  0.699444713751 -0.000120598130869 0  0.7044368731839999 -0.000881218567989 0  0.709428838947 -0.00164553444921 0  0.714420611902 -0.00241352933956 0  0.719412192842 -0.00318518810924 0  0.72440358249 -0.00396049692502 0  0.729394781506 -0.00473944324175 0  0.734385790478 -0.00552201579425 0  0.7393766099320001 -0.00630820458942 0  0.744367240324 -0.00709800089858 0  0.749357682045 -0.007891397250019999 0  0.754347935423 -0.00868838742183 0  0.759338000718 -0.00948896643491 0  0.764327878126 -0.0102931305462 0  0.769317567779 -0.011100877242 0  0.774307069744 -0.0119122052319 0  0.779296384026 -0.0127271144421 0  0.784285510564 -0.0135456060098 0  0.789274449237 -0.0143676822773 0  0.794263199857 -0.015193346786 0  0.799251762178 -0.0160226042713 0  0.804240135889 -0.0168554606571 0  0.809228320617 -0.0176919230503 0  0.814216315929 -0.0185319997363 0  0.819204121327 -0.0193757001735 0  0.824191736256 -0.020223034989 0  0.829179160098 -0.0210740159736 0  0.834166392174 -0.0219286560775 0  0.839153431744 -0.0227869694056 0  0.844140278009 -0.0236489712135 0  0.84912693011 -0.0245146779033 0  0.854113387127 -0.0253841070194 0  0.8590996480799999 -0.0262572772446 0  0.864085711933 -0.0271342083962 0  0.869071577585 -0.0280149214225 0  0.874057243882 -0.0288994383987 0  0.879042709606 -0.0297877825238 0  0.884027973483 -0.0306799781168 0  0.889013034181 -0.0315760506135 0  0.8939978903070001 -0.0324760265632 0  0.898982540413 -0.0333799336253 0  0.90396698299 -0.0342878005666 0  0.908951216474 -0.0351996572575 0  0.913935239241 -0.0361155346701 0  0.91891904961 -0.037035464874 0  0.9239026458439999 -0.0379594810348 0  0.928886026146 -0.0388876174103 0  0.933869188665 -0.0398199093483 0  0.938852131491 -0.0407563932838 0  0.943834852657 -0.0416971067367 0  0.948817350141 -0.042642088309 0  0.953799621862 -0.0435913776823 0  0.958781665686 -0.0445450156158 0  0.963763479419 -0.0455030439437 0  0.968745060812 -0.0464655055728 0  0.973726407562 -0.0474324444805 0  0.978707517306 -0.0484039057127 0  0.98368838763 -0.0493799353813 0  0.988669016059 -0.0503605806627 0  0.993649400067 -0.0513458897951 0  0.998629537069 -0.0523359120771 0  0.993573196312 -0.0527999452929 0  0.98851710256 -0.0532592653592 0  0.98346125323 -0.0537139215745 0  0.978405645794 -0.0541639621771 0  0.973350277779 -0.0546094343431 0  0.968295146769 -0.0550503841847 0  0.963240250403 -0.0554868567477 0  0.958185586377 -0.0559188960095 0  0.953131152441 -0.0563465448769 0  0.948076946403 -0.0567698451841 0  0.943022966127 -0.0571888376903 0  0.937969209534 -0.0576035620771 0  0.9329156746 -0.0580140569465 0  0.927862359359 -0.0584203598184 0  0.922809261902 -0.0588225071278 0  0.917756380376 -0.0592205342225 0  0.9127037129859999 -0.0596144753603 0  0.9076512579929999 -0.0600043637068 0  0.902599013718 -0.0603902313316 0  0.897546978536 -0.0607721092068 0  0.892495150882 -0.0611500272028 0  0.8874435292490001 -0.0615240140864 0  0.882392112187 -0.061894097517 0  0.8773408983049999 -0.0622603040439 0  0.87228988627 -0.06262265910290001 0  0.867239074806 -0.062981187013 0  0.8621884627 -0.0633359109732 0  0.857138048792 -0.0636868530587 0  0.852087831987 -0.0640340342178 0  0.847037811244 -0.06437747426779999 0  0.841987985585 -0.06471719189150001 0  0.836938354091 -0.0650532046333 0  0.831888915902 -0.0653855288953 0  0.826839670218 -0.06571417993299999 0  0.8217906163000001 -0.0660391718515 0  0.81674175347 -0.06636051760099999 0  0.811693081109 -0.0666782289721 0  0.80664459866 -0.066992316592 0  0.801596305629 -0.06730278991910001 0  0.7965482015799999 -0.06760965723869999 0  0.791500286142 -0.0679129256579 0  0.786452559003 -0.0682126011006 0  0.781405019916 -0.0685086883019 0  0.776357668695 -0.0688011908036 0  0.771310505217 -0.0690901109477 0  0.766263529423 -0.0693754498714 0  0.761216741316 -0.0696572075012 0  0.756170140965 -0.0699353825464 0  0.7511237285 -0.07020997249329999 0  0.746077504118 -0.070480973599 0  0.741031468081 -0.0707483808844 0  0.735985620713 -0.0710121881274 0  0.730939962407 -0.0712723878565 0  0.72589449362 -0.0715289713429 0  0.720849214876 -0.07178192859349999 0  0.715804126765 -0.0720312483432 0  0.710759229945 -0.0722769180468 0  0.705714525141 -0.07251892387099999 0  0.700670013145 -0.0727572506862 0  0.695625694818 -0.0729918820572 0  0.690581571092 -0.073222800235 0  0.6855376429659999 -0.0734499861469 0  0.680493911508 -0.07367341938749999 0  0.675450377859 -0.07389307820840001 0  0.67040704323 -0.07410893950810001 0  0.665363908902 -0.07432097882160001 0  0.66032097623 -0.0745291703094 0  0.655278246641 -0.074733486746 0  0.650235721635 -0.0749338995087 0  0.645193402785 -0.0751303785652 0  0.64015129174 -0.07532289246109999 0  0.635109390224 -0.0755114083072 0  0.630067700036 -0.07569589176579999 0  0.625026223053 -0.07587630703709999 0  0.619984961228 -0.0760526168446 0  0.614943916593 -0.0762247824206 0  0.609903091258 -0.07639276349 0  0.6048624874139999 -0.0765565182552 0  0.599822107332 -0.0767160033789 0  0.594781953366 -0.07687117396699999 0  0
[...]
<PointData  Vectors="u"> 
<DataArray  type="Float64"  Name="u"  NumberOfComponents="3" format="ascii">0.0000000000000000e+00 0.0000000000000000e+00 0.0000000000000000e+00  0.0000000000000000e+00 0.0000000000000000e+00 0.0000000000000000e+00  0.0000000000000000e+00 0.0000000000000000e+00 0.0000000000000000e+00  0.0000000000000000e+00 0.0000000000000000e+00 0.0000000000000000e+00  0.0000000000000000e+00 0.0000000000000000e+00 0.0000000000000000e+00  0.0000000000000000e+00 0.0000000000000000e+00 0.0000000000000000e+00  0.0000000000000000e+00 0.0000000000000000e+00 0.0000000000000000e+00  0.0000000000000000e+00 0.0000000000000000e+00 0.0000000000000000e+00  0.0000000000000000e+00 0.0000000000000000e+00 0.0000000000000000e+00  0.0000000000000000e+00 0.0000000000000000e+00 0.0000000000000000e+00  0.0000000000000000e+00 0.0000000000000000e+00 0.0000000000000000e+00  0.0000000000000000e+00 0.0000000000000000e+00 0.0000000000000000e+00  0.0000000000000000e+00 0.0000000000000000e+00 0.0000000000000000e+00  0.0000000000000000e+00 0.0000000000000000e+00 0.0000000000000000e+00  0.0000000000000000e+00 0.0000000000000000e+00 0.0000000000000000e+00  0.0000000000000000e+00 0.0000000000000000e+00 0.0000000000000000e+00  0.0000000000000000e+00 0.0000000000000000e+00 0.0000000000000000e+00  0.0000000000000000e+00 0.0000000000000000e+00 0.0000000000000000e+00  0.0000000000000000e+00 0.0000000000000000e+00 0.0000000000000000e+00  0.0000000000000000e+00 0.0000000000000000e+00 0.0000000000000000e+00  0.0000000000000000e+00 0.0000000000000000e+00 0.0000000000000000e+00  0.0000000000000000e+00 0.0000000000000000e+00 0.0000000000000000e+00  0.0000000000000000e+00 0.0000000000000000e+00 0.0000000000000000e+00  0.0000000000000000e+00 0.0000000000000000e+00 0.0000000000000000e+00  0.0000000000000000e+00 0.0000000000000000e+00 0.0000000000000000e+00  0.0000000000000000e+00 0.0000000000000000e+00 0.0000000000000000e+00  0.0000000000000000e+00 0.0000000000000000e+00 0.0000000000000000e+00  0.0000000000000000e+00 0.0000000000000000e+00 0.0000000000000000e+00  0.0000000000000000e+00 0.0000000000000000e+00 0.0000000000000000e+00  0.0000000000000000e+00 0.0000000000000000e+00 0.0000000000000000e+00  0.0000000000000000e+00 0.0000000000000000e+00 0.0000000000000000e+00  0.0000000000000000e+00 0.0000000000000000e+00 0.0000000000000000e+00  0.0000000000000000e+00 0.0000000000000000e+00 0.0000000000000000e+00  0.0000000000000000e+00 0.0000000000000000e+00 0.0000000000000000e+00  0.0000000000000000e+00 0.0000000000000000e+00 0.0000000000000000e+00  0.0000000000000000e+00 0.0000000000000000e+00 0.0000000000000000e+00  0.0000000000000000e+00 0.0000000000000000e+00 0.0000000000000000e+00  0.0000000000000000e+00 0.0000000000000000e+00 0.0000000000000000e+00  0.0000000000000000e+00 0.0000000000000000e+00 0.0000000000000000e+00  0.0000000000000000e+00 0.0000000000000000e+00 0.0000000000000000e+00  0.0000000000000000e+00 0.0000000000000000e+00 0.0000000000000000e+00  0.0000000000000000e+00 0.0000000000000000e+00 0.0000000000000000e+00  0.0000000000000000e+00 0.0000000000000000e+00 0.0000000000000000e+00  0.0000000000000000e+00 0.0000000000000000e+00 0.0000000000000000e+00  0.0000000000000000e+00 0.0000000000000000e+00 0.0000000000000000e+00  0.0000000000000000e+00 0.0000000000000000e+00 0.0000000000000000e+00  0.0000000000000000e+00 0.0000000000000000e+00 0.0000000000000000e+00  0.0000000000000000e+00 0.0000000000000000e+00 0.0000000000000000e+00  0.0000000000000000e+00 0.0000000000000000e+00 0.0000000000000000e+00  0.0000000000000000e+00 0.0000000000000000e+00 0.0000000000000000e+00  0.0000000000000000e+00 0.0000000000000000e+00 0.0000000000000000e+00  0.0000000000000000e+00 0.0000000000000000e+00 0.0000000000000000e+00  0.0000000000000000e+00 0.0000000000000000e+00 0.0000000000000000e+00  0.0000000000000000e+00 0.0000000000000000e+00 0.0000000000000000e+00  0.0000000000000000e+00 0.0000000000000000e+00 0.0000000000000000e+00  0.0000000000000000e+00 0.0000000000000000e+00 0.0000000000000000e+00  0.0000000000000000e+00 0.0000000000000000e+00 0.0000000000000000e+00  0.0000000000000000e+00 0.0000000000000000e+00 0.0000000000000000e+00  0.0000000000000000e+00 0.0000000000000000e+00 0.0000000000000000e+00  0.0000000000000000e+00 0.0000000000000000e+00 0.0000000000000000e+00  0.0000000000000000e+00 0.0000000000000000e+00 0.0000000000000000e+00  0.0000000000000000e+00 0.0000000000000000e+00 0.0000000000000000e+00  0.0000000000000000e+00 0.0000000000000000e+00 0.0000000000000000e+00  0.0000000000000000e+00 0.0000000000000000e+00 0.0000000000000000e+00  0.0000000000000000e+00 0.0000000000000000e+00 0.0000000000000000e+00  0.0000000000000000e+00 0.0000000000000000e+00 0.0000000000000000e+00  0.0000000000000000e+00 0.0000000000000000e+00 0.0000000000000000e+00  0.0000000000000000e+00 0.0000000000000000e+00 0.0000000000000000e+00  0.0000000000000000e+00 0.0000000000000000e+00 0.0000000000000000e+00  0.0000000000000000e+00 0.0000000000000000e+00 0.0000000000000000e+00  0.0000000000000000e+00 0.0000000000000000e+00 0.0000000000000000e+00  0.0000000000000000e+00 0.0000000000000000e+00 0.0000000000000000e+00  0.0000000000000000e+00 0.0000000000000000e+00 0.0000000000000000e+00  0.0000000000000000e+00 0.0000000000000000e+00 0.0000000000000000e+00  0.0000000000000000e+00 0.0000000000000000e+00 0.0000000000000000e+00  0.0000000000000000e+00 0.0000000000000000e+00 0.0000000000000000e+00  0.0000000000000000e+00 0.0000000000000000e+00 0.0000000000000000e+00  0.0000000000000000e+00 0.0000000000000000e+00 0.0000000000000000e+00  0.0000000000000000e+00 0.0000000000000000e+00 0.0000000000000000e+00  0.0000000000000000e+00 0.0000000000000000e+00 0.0000000000000000e+00  0.0000000000000000e+00 0.0000000000000000e+00 0.0000000000000000e+00  0.0000000000000000e+00 0.0000000000000000e+00 0.0000000000000000e+00  0.0000000000000000e+00 0.0000000000000000e+00 0.0000000000000000e+00  0.0000000000000000e+00 0.0000000000000000e+00 0.0000000000000000e+00  0.0000000000000000e+00 0.0000000000000000e+00 0.0000000000000000e+00  0.0000000000000000e+00 0.0000000000000000e+00 0.0000000000000000e+00  0.0000000000000000e+00 0.0000000000000000e+00 0.0000000000000000e+00  0.0000000000000000e+00 0.0000000000000000e+00 0.0000000000000000e+00  0.0000000000000000e+00 0.0000000000000000e+00 0.0000000000000000e+00  0.0000000000000000e+00 0.0000000000000000e+00 0.0000000000000000e+00  0.0000000000000000e+00 0.0000000000000000e+00 0.0000000000000000e+00  0.0000000000000000e+00 0.0000000000000000e+00 0.0000000000000000e+00  0.0000000000000000e+00 0.0000000000000000e+00 0.0000000000000000e+00  0.0000000000000000e+00 0.0000000000000000e+00 0.0000000000000000e+00  0.0000000000000000e+00 0.0000000000000000e+00 0.0000000000000000e+00  0.0000000000000000e+00 0.0000000000000000e+00 0.0000000000000000e+00  0.0000000000000000e+00 0.0000000000000000e+00 0.0000000000000000e+00  0.0000000000000000e+00 0.0000000000000000e+00 0.0000000000000000e+00  0.0000000000000000e+00 0.0000000000000000e+00 0.0000000000000000e+00  0.0000000000000000e+00 0.0000000000000000e+00 0.0000000000000000e+00  0.0000000000000000e+00 0.0000000000000000e+00 0.0000000000000000e+00  0.0000000000000000e+00 0.0000000000000000e+00 0.0000000000000000e+00  0.0000000000000000e+00 0.0000000000000000e+00 0.0000000000000000e+00  0.0000000000000000e+00 0.0000000000000000e+00 0.0000000000000000e+00  0.0000000000000000e+00 0.0000000000000000e+00 0.0000000000000000e+00  0.0000000000000000e+00 0.0000000000000000e+00 0.0000000000000000e+00  0.0000000000000000e+00 0.0000000000000000e+00 0.0000000000000000e+00  0.0000000000000000e+00 0.0000000000000000e+00 0.0000000000000000e+00  0.0000000000000000e+00 0.0000000000000000e+00 0.0000000000000000e+00  0.0000000000000000e+00 0.0000000000000000e+00 0.0000000000000000e+00  0.0000000000000000e+00 0.0000000000000000e+00 0.0000000000000000e+00  0.0000000000000000e+00 0.0000000000000000e+00 0.0000000000000000e+00  0.0000000000000000e+00 0.0000000000000000e+00 0.0000000000000000e+00  0.0000000000000000e+00 0.0000000000000000e+00 0.0000000000000000e+00  0.0000000000000000e+00 0.0000000000000000e+00 0.0000000000000000e+00  0.0000000000000000e+00 0.0000000000000000e+00 0.0000000000000000e+00  0.0000000000000000e+00 0.0000000000000000e+00 0.0000000000000000e+00  0.0000000000000000e+00 0.0000000000000000e+00 0.0000000000000000e+00  0.0000000000000000e+00 0.0000000000000000e+00 0.0000000000000000e+00  0.0000000000000000e+00 0.0000000000000000e+00 0.0000000000000000e+00  0.0000000000000000e+00 0.0000000000000000e+00 0.0000000000000000e+00  0.0000000000000000e+00 0.0000000000000000e+00 0.0000000000000000e+00  0.0000000000000000e+00 0.0000000000000000e+00 0.0000000000000000e+00  0.0000000000000000e+00 0.0000000000000000e+00 0.0000000000000000e+00  0.0000000000000000e+00 0.0000000000000000e+00 0.0000000000000000e+00  0.0000000000000000e+00 0.0000000000000000e+00 0.0000000000000000e+00  0.0000000000000000e+00 0.0000000000000000e+00 0.0000000000000000e+00  0.0000000000000000e+00 0.0000000000000000e+00 0.0000000000000000e+00  0.0000000000000000e+00 0.0000000000000000e+00 0.0000000000000000e+00  0.0000000000000000e+00 0.0000000000000000e+00 0.0000000000000000e+00  0.0000000000000000e+00 0.0000000000000000e+00 0.0000000000000000e+00  0.0000000000000000e+00 0.0000000000000000e+00 0.0000000000000000e+00  0.0000000000000000e+00 0.0000000000000000e+00 0.0000000000000000e+00  0.0000000000000000e+00 0.0000000000000000e+00 0.0000000000000000e+00  0.0000000000000000e+00 0.0000000000000000e+00 0.0000000000000000e+00  0.0000000000000000e+00 0.0000000000000000e+00 0.0000000000000000e+00  0.0000000000000000e+00 0.0000000000000000e+00 0.0000000000000000e+00  0.0000000000000000e+00 0.0000000000000000e+00 0.0000000000000000e+00  0.0000000000000000e+00 0.0000000000000000e+00 0.0000000000000000e+00  0.0000000000000000e+00 0.0000000000000000e+00 0.0000000000000000e+00  0.0000000000000000e+00 0.0000000000000000e+00 0.0000000000000000e+00  0.0000000000000000e+00 0.0000000000000000e+00 0.0000000000000000e+00  0.0000000000000000e+00 0.0000000000000000e+00 0.0000000000000000e+00  0.0000000000000000e+00 0.0000000000000000e+00 0.0000000000000000e+00  0.0000000000000000e+00 0.0000000000000000e+00 0.0000000000000000e+00  0.0000000000000000e+00 0.0000000000000000e+00 0.0000000000000000e+00  0.0000000000000000e+00 0.0000000000000000e+00 0.0000000000000000e+00  0.0000000000000000e+00 0.0000000000000000e+00 0.0000000000000000e+00  0.0000000000000000e+00 0.0000000000000000e+00 0.0000000000000000e+00  0.0000000000000000e+00 0.0000000000000000e+00 0.0000000000000000e+00  0.0000000000000000e+00 0.0000000000000000e+00 0.0000000000000000e+00  0.0000000000000000e+00 0.0000000000000000e+00 0.0000000000000000e+00  0.0000000000000000e+00 0.0000000000000000e+00 0.0000000000000000e+00  0.0000000000000000e+00 0.0000000000000000e+00 0.0000000000000000e+00  0.0000000000000000e+00 0.0000000000000000e+00 0.0000000000000000e+00  0.0000000000000000e+00 0.0000000000000000e+00 0.0000000000000000e+00  0.0000000000000000e+00 0.0000000000000000e+00 0.0000000000000000e+00  0.0000000000000000e+00 0.0000000000000000e+00 0.0000000000000000e+00  0.0000000000000000e+00 0.0000000000000000e+00 0.0000000000000000e+00  0.0000000000000000e+00 0.0000000000000000e+00 0.0000000000000000e+00  0.0000000000000000e+00 0.0000000000000000e+00 0.0000000000000000e+00  0.0000000000000000e+00 0.0000000000000000e+00 0.0000000000000000e+00  0.0000000000000000e+00 0.0000000000000000e+00 0.0000000000000000e+00  0.0000000000000000e+00 0.0000000000000000e+00 0.0000000000000000e+00  0.0000000000000000e+00 0.0000000000000000e+00 0.0000000000000000e+00  0.0000000000000000e+00 0.0000000000000000e+00 0.0000000000000000e+00  0.0000000000000000e+00 0.0000000000000000e+00 0.0000000000000000e+00  0.0000000000000000e+00 0.0000000000000000e+00 0.0000000000000000e+00  0.0000000000000000e+00 0.0000000000000000e+00 0.0000000000000000e+00  0.0000000000000000e+00 0.0000000000000000e+00 0.0000000000000000e+00  0.0000000000000000e+00 0.0000000000000000e+00 0.0000000000000000e+00  0.0000000000000000e+00 0.0000000000000000e+00 0.0000000000000000e+00  0.0000000000000000e+00 0.0000000000000000e+00 0.0000000000000000e+00  0.0000000000000000e+00 0.0000000000000000e+00 0.0000000000000000e+00  0.0000000000000000e+00 0.0000000000000000e+00 0.0000000000000000e+00  0.0000000000000000e+00 0.0000000000000000e+00 0.0000000000000000e+00  0.0000000000000000e+00 0.0000000000000000e+00 0.0000000000000000e+00  0.0000000000000000e+00 0.0000000000000000e+00 0.0000000000000000e+00  0.0000000000000000e+00 0.0000000000000000e+00 0.0000000000000000e+00  0.0000000000000000e+00 0.0000000000000000e+00 0.0000000000000000e+00  0.0000000000000000e+00 0.0000000000000000e+00 0.0000000000000000e+00  0.0000000000000000e+00 0.0000000000000000e+00 0.0000000000000000e+00  0.0000000000000000e+00 0.0000000000000000e+00 0.0000000000000000e+00  0.0000000000000000e+00 0.0000000000000000e+00 0.0000000000000000e+00  0.0000000000000000e+00 0.0000000000000000e+00 0.0000000000000000e+00  0.0000000000000000e+00 0.0000000000000000e+00 0.0000000000000000e+00  0.0000000000000000e+00 0.0000000000000000e+00 0.0000000000000000e+00  0.0000000000000000e+00 0.0000000000000000e+00 0.0000000000000000e+00  0.0000000000000000e+00 0.0000000000000000e+00 0.0000000000000000e+00  0.0000000000000000e+00 0.0000000000000000e+00 0.0000000000000000e+00  0.0000000000000000e+00 0.0000000000000000e+00 0.0000000000000000e+00  0.0000000000000000e+00 0.0000000000000000e+00 0.0000000000000000e+00  0.0000000000000000e+00 0.0000000000000000e+00 0.0000000000000000e+00  0.0000000000000000e+00 0.0000000000000000e+00 0.0000000000000000e+00  0.0000000000000000e+00 0.0000000000000000e+00 0.0000000000000000e+00  0.0000000000000000e+00 0.0000000000000000e+00 0.0000000000000000e+00  0.0000000000000000e+00 0.0000000000000000e+00 0.0000000000000000e+00  0.0000000000000000e+00 0.0000000000000000e+00 0.0000000000000000e+00  0.0000000000000000e+00 0.0000000000000000e+00 0.0000000000000000e+00  0.0000000000000000e+00 0.0000000000000000e+00 0.0000000000000000e+00  0.0000000000000000e+00 0.0000000000000000e+00 0.0000000000000000e+00  0.0000000000000000e+00 0.0000000000000000e+00 0.0000000000000000e+00  0.0000000000000000e+00 0.0000000000000000e+00 0.0000000000000000e+00  0.0000000000000000e+00 0.0000000000000000e+00 0.0000000000000000e+00  0.0000000000000000e+00 0.0000000000000000e+00 0.0000000000000000e+00  0.0000000000000000e+00 0.0000000000000000e+00 0.0000000000000000e+00  0.0000000000000000e+00 0.0000000000000000e+00 0.0000000000000000e+00  0.0000000000000000e+00 0.0000000000000000e+00 0.0000000000000000e+00  0.0000000000000000e+00 0.0000000000000000e+00 0.0000000000000000e+00  0.0000000000000000e+00 0.0000000000000000e+00 0.0000000000000000e+00  0.0000000000000000e+00 0.0000000000000000e+00 0.0000000000000000e+00  0.0000000000000000e+00 0.0000000000000000e+00 0.0000000000000000e+00  0.0000000000000000e+00 0.0000000000000000e+00 0.0000000000000000e+00  0.0000000000000000e+00 0.0000000000000000e+00 0.0000000000000000e+00  0.0000000000000000e+00 0.0000000000000000e+00 0.0000000000000000e+00  0.0000000000000000e+00 0.0000000000000000e+00 0.0000000000000000e+00  0.0000000000000000e+00 0.0000000000000000e+00 0.0000000000000000e+00  0.0000000000000000e+00 0.0000000000000000e+00 0.0000000000000000e+00  0.0000000000000000e+00 0.0000000000000000e+00 0.0000000000000000e+00  0.0000000000000000e+00 0.0000000000000000e+00 0.0000000000000000e+00  0.0000000000000000e+00 0.0000000000000000e+00 0.0000000000000000e+00  0.0000000000000000e+00 0.0000000000000000e+00 0.0000000000000000e+00  0.0000000000000000e+00 0.0000000000000000e+00 0.0000000000000000e+00  0.0000000000000000e+00 0.0000000000000000e+00 0.0000000000000000e+00  0.0000000000000000e+00 0.0000000000000000e+00 0.0000000000000000e+00  0.0000000000000000e+00 0.0000000000000000e+00 0.0000000000000000e+00  0.0000000000000000e+00 0.0000000000000000e+00 0.0000000000000000e+00  0.0000000000000000e+00 0.0000000000000000e+00 0.0000000000000000e+00  0.0000000000000000e+00 0.0000000000000000e+00 0.0000000000000000e+00  0.0000000000000000e+00 0.0000000000000000e+00 0.0000000000000000e+00  0.0000000000000000e+00 0.0000000000000000e+00 0.0000000000000000e+00  0.0000000000000000e+00 0.0000000000000000e+00 0.0000000000000000e+00  0.0000000000000000e+00 0.0000000000000000e+00 0.0000000000000000e+00  0.0000000000000000e+00 0.0000000000000000e+00 0.0000000000000000e+00  0.0000000000000000e+00 0.0000000000000000e+00 0.0000000000000000e+00  0.0000000000000000e+00 0.0000000000000000e+00 0.0000000000000000e+00  0.0000000000000000e+00 0.0000000000000000e+00 0.0000000000000000e+00  0.0000000000000000e+00 0.0000000000000000e+00 0.0000000000000000e+00  0.0000000000000000e+00 0.0000000000000000e+00 0.0000000000000000e+00  0.0000000000000000e+00 0.0000000000000000e+00 0.0000000000000000e+00  0.0000000000000000e+00 0.0000000000000000e+00 0.0000000000000000e+00  0.0000000000000000e+00 0.0000000000000000e+00 0.0000000000000000e+00  0.0000000000000000e+00 0.0000000000000000e+00 0.0000000000000000e+00  0.0000000000000000e+00 0.0000000000000000e+00 0.0000000000000000e+00  0.0000000000000000e+00 0.0000000000000000e+00 0.0000000000000000e+00  0.0000000000000000e+00 0.0000000000000000e+00 0.0000000000000000e+00  0.0000000000000000e+00 0.0000000000000000e+00 0.0000000000000000e+00  0.0000000000000000e+00 0.0000000000000000e+00 0.0000000000000000e+00  0.0000000000000000e+00 0.0000000000000000e+00 0.0000000000000000e+00  0.0000000000000000e+00 0.0000000000000000e+00 0.0000000000000000e+00  0.0000000000000000e+00 0.0000000000000000e+00 0.0000000000000000e+00  0.0000000000000000e+00 0.0000000000000000e+00 0.0000000000000000e+00  0.0000000000000000e+00 0.0000000000000000e+00 0.0000000000000000e+00  0.0000000000000000e+00 0.0000000000000000e+00 0.0000000000000000e+00  0.0000000000000000e+00 0.0000000000000000e+00 0.0000000000000000e+00  0.0000000000000000e+00 0.0000000000000000e+00 0.0000000000000000e+00  0.0000000000000000e+00 0.0000000000000000e+00 0.0000000000000000e+00  0.0000000000000000e+00 0.0000000000000000e+00 0.0000000000000000e+00  0.0000000000000000e+00 0.0000000000000000e+00 0.0000000000000000e+00  0.0000000000000000e+00 0.0000000000000000e+00 0.0000000000000000e+00  0.0000000000000000e+00 0.0000000000000000e+00 0.0000000000000000e+00  0.0000000000000000e+00 0.0000000000000000e+00 0.0000000000000000e+00  0.0000000000000000e+00 0.0000000000000000e+00 0.0000000000000000e+00  0.0000000000000000e+00 0.0000000000000000e+00 0.0000000000000000e+00  0.0000000000000000e+00 0.0000000000000000e+00 0.0000000000000000e+00  0.0000000000000000e+00 0.0000000000000000e+00 0.0000000000000000e+00  0.0000000000000000e+00 0.0000000000000000e+00 0.0000000000000000e+00  0.0000000000000000e+00 0.0000000000000000e+00 0.0000000000000000e+00  0.0000000000000000e+00 0.0000000000000000e+00 0.0000000000000000e+00  0.0000000000000000e+00 0.0000000000000000e+00 0.0000000000000000e+00  0.0000000000000000e+00 0.0000000000000000e+00 0.0000000000000000e+00  0.0000000000000000e+00 0.0000000000000000e+00 0.0000000000000000e+00  0.0000000000000000e+00 0.0000000000000000e+00 0.0000000000000000e+00  0.0000000000000000e+00 0.0000000000000000e+00 0.0000000000000000e+00  0.0000000000000000e+00 0.0000000000000000e+00 0.0000000000000000e+00  0.0000000000000000e+00 0.0000000000000000e+00 0.0000000000000000e+00  0.0000000000000000e+00 0.0000000000000000e+00 0.0000000000000000e+00  0.0000000000000000e+00 0.0000000000000000e+00 0.0000000000000000e+00  0.0000000000000000e+00 0.0000000000000000e+00 0.0000000000000000e+00  0.0000000000000000e+00 0.0000000000000000e+00 0.0000000000000000e+00  0.0000000000000000e+00 0.0000000000000000e+00 0.0000000000000000e+00  0.0000000000000000e+00 0.0000000000000000e+00 0.0000000000000000e+00  0.0000000000000000e+00 0.0000000000000000e+00 0.0000000000000000e+00  0.0000000000000000e+00 0.0000000000000000e+00 0.0000000000000000e+00  0.0000000000000000