<?xml version="1.0"?>
<VTKFile type="UnstructuredGrid"  version="0.1"  >
<UnstructuredGrid>
<Piece  NumberOfPoints="5665" NumberOfCells="10866">
<Points>
<DataArray  type="Float64"  NumberOfComponents="3"  format="ascii">0 0 0  0.00523802650254 0.0121532396601 0  0.0103467684479 0.0168997657438 0  0.0154340886717 0.0204190411838 0  0.0205102348999 0.0232981583029 0  0.0255791778495 0.0257645995174 0  0.0306429550051 0.0279350923438 0  0.0357027775993 0.0298790283068 0  0.0407594355585 0.0316416622967 0  0.04581347821 0.0332544652851 0  0.0508653060816 0.0347403835123 0  0.0559152220438 0.0361167684281 0  0.0609634618506 0.0373971263865 0  0.0660102133967 0.0385922218733 0  0.0710556294024 0.0397108042408 0  0.0760998360768 0.040760104003 0  0.0811429392151 0.0417461821674 0  0.0861850286024 0.0426741825307 0  0.091226181266 0.0435485179813 0  0.0962664639231 0.0443730107549 0  0.101305934856 0.0451509998331 0  0.106344645369 0.0458854244307 0  0.111382640935 0.0465788897722 0  0.116419962116 0.0472337195455 0  0.121456645295 0.0478519981879 0  0.126492723281 0.0484356053155 0  0.131528225802 0.0489862440096 0  0.136563179912 0.049505464248 0  0.141597610335 0.0499946824638 0  0.14663153975 0.0504551979851 0  0.151664989038 0.0508882069432 0  0.156697977481 0.051294814111 0  0.161730522945 0.0516760430344 0  0.166762642032 0.0520328447497 0  0.171794350206 0.0523661053196 0  0.176825661915 0.0526766523796 0  0.181856590685 0.0529652608471 0  0.186887149208 0.0532326579222 0  0.191917349423 0.0534795274834 0  0.196947202578 0.0537065139662 0  0.201976719293 0.0539142257971 0  0.207005909613 0.054103238443 0  0.212034783054 0.054274097128 0  0.217063348648 0.0544273192609 0  0.22209161498 0.0545633966097 0  0.227119590218 0.0546827972549 0  0.232147282152 0.0547859673491 0  0.237174698213 0.0548733327044 0  0.242201845504 0.0549453002291 0  0.247228730821 0.0550022592305 0  0.252255360672 0.0550445825984 0  0.257281741298 0.0550726278822 0  0.26230787869 0.0550867382745 0  0.267333778603 0.0550872435086 0  0.272359446573 0.0550744606812 0  0.277384887926 0.0550486950064 0  0.282410107795 0.055010240508 0  0.287435111128 0.0549593806574 0  0.2924599027 0.05489638896 0  0.297484487118 0.0548215294971 0  0.302508868838 0.054735057427 0  0.307533052166 0.0546372194474 0  0.312557041267 0.0545282542252 0  0.317580840174 0.0544083927944 0  0.322604452793 0.0542778589256 0  0.32762788291 0.0541368694706 0  0.332651134193 0.0539856346817 0  0.337674210204 0.0538243585109 0  0.342697114397 0.0536532388878 0  0.347719850126 0.05347246798 0  0.352742420649 0.0532822324362 0  0.357764829133 0.0530827136137 0  0.362787078653 0.0528740877917 0  0.367809172202 0.0526565263713 0  0.372831112689 0.0524301960631 0  0.377852902947 0.0521952590636 0  0.382874545729 0.0519518732206 0  0.387896043718 0.0517001921895 0  0.392917399526 0.0514403655803 0  0.397938615696 0.0511725390953 0  0.402959694705 0.0508968546607 0  0.407980638966 0.0506134505488 0  0.413001450832 0.0503224614953 0  0.418022132594 0.0500240188088 0  0.423042686487 0.049718250475 0  0.428063114688 0.0494052812553 0  0.43308341932 0.0490852327802 0  0.438103602454 0.0487582236378 0  0.443123666107 0.0484243694572 0  0.448143612247 0.0480837829889 0  0.453163442794 0.0477365741799 0  0.45818315962 0.0473828502456 0  0.463202764548 0.0470227157382 0  0.468222259359 0.0466562726115 0  0.473241645789 0.046283620283 0  0.478260925528 0.0459048556925 0  0.483280100228 0.0455200733585 0  0.488299171496 0.0451293654312 0  0.4933181409 0.0447328217439 0  0.498337009969 0.0443305298617 0  0.503355780193 0.0439225751275 0  0.508374453024 0.0435090407068 0  0.513393029875 0.04309000763 0  0.5184115121240001 0.0426655548328 0  0.523429901114 0.0422357591951 0  0.528448198151 0.0418006955781 0  0.533466404508 0.0413604368595 0  0.538484521422 0.0409150539681 0  0.543502550097 0.0404646159158 0  0.548520491706 0.0400091898289 0  0.553538347388 0.0395488409786 0  0.558556118251 0.0390836328089 0  0.56357380537 0.0386136269646 0  0.56859140979 0.038138883318 0  0.573608932526 0.0376594599935 0  0.578626374563 0.0371754133928 0  0.583643736855 0.0366867982178 0  0.5886610203280001 0.0361936674937 0  0.593678225878 0.03569607259 0  0.598695354374 0.0351940632416 0  0.603712406656 0.0346876875693 0  0.6087293835349999 0.0341769920983 0  0.613746285797 0.0336620217776 0  0.618763114198 0.0331428199974 0  0.623779869469 0.0326194286062 0  0.628796552315 0.0320918879282 0  0.633813163412 0.0315602367784 0  0.638829703412 0.0310245124788 0  0.64384617294 0.030484750873 0  0.648862572597 0.0299409863403 0  0.653878902958 0.0293932518103 0  0.658895164572 0.0288415787756 0  0.663911357964 0.0282859973052 0  0.668927483634 0.0277265360567 0  0.673943542058 0.0271632222888 0  0.678959533688 0.0265960818725 0  0.683975458952 0.0260251393027 0  0.688991318252 0.025450417709 0  0.694007111969 0.0248719388664 0  0.69902284046 0.0242897232052 0  0.704038504057 0.0237037898213 0  0.709054103072 0.0231141564854 0  0.7140696377919999 0.0225208396527 0  0.71908510848 0.0219238544714 0  0.724100515378 0.0213232147915 0  0.729115858707 0.0207189331735 0  0.734131138662 0.0201110208964 0  0.739146355418 0.0194994879654 0  0.744161509129 0.0188843431198 0  0.749176599923 0.0182655938405 0  0.754191627911 0.017643246357 0  0.759206593179 0.0170173056545 0  0.764221495793 0.0163877754806 0  0.769236335796 0.0157546583519 0  0.774251113211 0.0151179555607 0  0.77926582804 0.0144776671806 0  0.784280480262 0.0138337920731 0  0.789295069837 0.0131863278932 0  0.794309596702 0.012535271095 0  0.799324060775 0.0118806169373 0  0.804338461953 0.0112223594892 0  0.809352800111 0.0105604916349 0  0.814367075104 0.009895005079049999 0  0.819381286767 0.009225890351540001 0  0.824395434915 0.00855313681244 0  0.829409519341 0.007876732656520001 0  0.834423539818 0.00719666491788 0  0.839437496102 0.00651291947429 0  0.844451387924 0.00582548105153 0  0.849465214999 0.00513433322757 0  0.854478977019 0.0044394584366 0  0.859492673658 0.00374083797302 0  0.86450630457 0.00303845199529 0  0.869519869388 0.00233227952969 0  0.8745333677280001 0.00162229847397 0  0.879546799183 0.000908485600908 0  0.884560163328 0.000190816561787 0  0.889573459719 -0.000530734110215 0  0.894586687892 -0.00125619299673 0  0.899599847364 -0.00198558779101 0  0.904612937631 -0.00271894729474 0  0.909625958173 -0.00345630141504 0  0.914638908446 -0.00419768116146 0  0.919651787892 -0.00494311864308 0  0.9246645959300001 -0.00569264706566 0  0.929677331962 -0.0064463007289 0  0.93468999537 -0.00720411502372 0  0.939702585517 -0.007966126429639999 0  0.944715101748 -0.008732372512219999 0  0.9497275433870001 -0.00950289192052 0  0.954739909742 -0.0102777243847 0  0.9597522001 -0.0110569107135 0  0.96476441373 -0.0118404927922 0  0.969776549882 -0.0126285135801 0  0.974788607787 -0.013421017108 0  0.9798005866590001 -0.0142180484769 0  0.984812485692 -0.0150196538551 0  0.98982430406 -0.0158258804761 0  0.994836040921 -0.0166367766374 0  0.999847695414 -0.0174523916974 0  0.994810629349 -0.0180926058358 0  0.9897736456539999 -0.0187281010754 0  0.984736743465 -0.0193589267749 0  0.97969992194 -0.0199851312315 0  0.974663180255 -0.0206067616788 0  0.969626517604 -0.0212238642852 0  0.964589933199 -0.0218364841514 0  0.959553426272 -0.0224446653085 0  0.954516996073 -0.0230484507158 0  0.949480641871 -0.0236478822584 0  0.944444362954 -0.0242430007451 0  0.939408158627 -0.0248338459061 0  0.9343720282170001 -0.0254204563904 0  0.929335971068 -0.0260028697637 0  0.9242999865430001 -0.0265811225053 0  0.919264074025 -0.0271552500063 0  0.914228232913 -0.0277252865664 0  0.90919246263 -0.0282912653912 0  0.904156762614 -0.0288532185899 0  0.899121132325 -0.0294111771721 0  0.89408557124 -0.0299651710448 0  0.889050078856 -0.0305152290097 0  0.88401465469 -0.0310613787601 0  0.878979298279 -0.0316036468777 0  0.873944009177 -0.0321420588292 0  0.868908786959 -0.0326766389633 0  0.863873631221 -0.0332074105073 0  0.858838541576 -0.0337343955635 0  0.853803517658 -0.0342576151055 0  0.848768559121 -0.0347770889748 0  0.843733665639 -0.0352928358772 0  0.838698836904 -0.0358048733784 0  0.83366407263 -0.0363132179004 0  0.828629372551 -0.0368178847175 0  0.82359473642 -0.0373188879518 0  0.818560164011 -0.0378162405693 0  0.813525655117 -0.0383099543753 0  0.808491209554 -0.0388000400096 0  0.803456827155 -0.0392865069423 0  0.798422507775 -0.0397693634688 0  0.793388251292 -0.0402486167049 0  0.7883540576 -0.0407242725815 0  0.783319926618 -0.0411963358398 0  0.778285858283 -0.0416648100257 0  0.773251852555 -0.0421296974842 0  0.7682179094130001 -0.0425909993539 0  0.7631840288590001 -0.043048715561 0  0.758150210916 -0.0435028448133 0  0.753116455627 -0.0439533845943 0  0.748082763058 -0.0444003311562 0  0.743049133296 -0.0448436795139 0  0.738015566449 -0.0452834234378 0  0.732982062648 -0.0457195554473 0  0.7279486220469999 -0.0461520668028 0  0.722915244818 -0.0465809474992 0  0.71788193116 -0.0470061862575 0  0.712848681291 -0.0474277705173 0  0.707815495453 -0.0478456864284 0  0.702782373912 -0.0482599188427 0  0.697749316952 -0.048670451305 0  0.692716324886 -0.0490772660446 0  0.687683398047 -0.0494803439657 0  0.68265053679 -0.0498796646378 0  0.677617741496 -0.050275206286 0  0.6725850125690001 -0.0506669457807 0  0.667552350436 -0.0510548586271 0  0.66251975555 -0.0514389189539 0  0.657487228385 -0.0518190995028 0  0.652454769442 -0.0521953716159 0  0.647422379246 -0.0525677052243 0  0.642390058346 -0.0529360688354 0  0.637357807317 -0.0533004295197 0  0.63232562676 -0.0536607528977 0  0.6272935173 -0.0540170031258 0  0.622261479589 -0.0543691428823 0  0.617229514303 -0.0547171333519 0  0.612197622148 -0.0550609342106 0  0.607165803852 -0.0554005036097 0  0.602134060175 -0.0557357981591 0  0.5971023919 -0.0560667729098 0  0.592070799839 -0.0563933813366 0  0.587039284832 -0.0567155753188 0  0.582007847748 -0.0570333051213 0  0.576976489483 -
[...]
<PointData  Scalars="u"> 
<DataArray  type="Float64"  Name="u"  format="ascii">4.5503376288871280e+01  4.3161644184506329e+01  4.0944432982626367e+01  3.8879650816272566e+01  3.6964266438632613e+01  3.5119253454907451e+01  3.3386323000698368e+01  3.1721848638419011e+01  3.0125050874231928e+01  2.8604023383374454e+01  2.7144101304443826e+01  2.5747377707851587e+01  2.4404328485330659e+01  2.3118143711757838e+01  2.1879877433138493e+01  2.0691795873996135e+01  1.9546814785340224e+01  1.8447768593468179e+01  1.7394003995613332e+01  1.6377183190662560e+01  1.5399716357436731e+01  1.4457363349100602e+01  1.3551984905210920e+01  1.2679511451523341e+01  1.1841466969619653e+01  1.1032014780188529e+01  1.0251783004305647e+01  9.5024472066089185e+00  8.7798327494245836e+00  8.0811789095260185e+00  7.4095364621348292e+00  6.7607274724548709e+00  6.1354355021630367e+00  5.5342936117811314e+00  4.9529649251647321e+00  4.3936489289088483e+00  3.8525977779246006e+00  3.3303591022179302e+00  2.8286975424683511e+00  2.3439198776338657e+00  1.8745994501408287e+00  1.4229217489134365e+00  9.8562024849188601e-01  5.6622768535642454e-01  1.5984636855376180e-01  -2.3178414356618632e-01  -6.1128215740326486e-01  -9.7779600268641320e-01  -1.3296234952771315e+00  -1.6699746092940582e+00  -2.0002327409027822e+00  -2.3182449825236100e+00  -2.6264791334553030e+00  -2.9232745959022171e+00  -3.2079097279018751e+00  -3.4846445779829933e+00  -3.7526281482914419e+00  -4.0098043552580913e+00  -4.2589338552663927e+00  -4.5011307780168330e+00  -4.7340408765974020e+00  -4.9596442537903949e+00  -5.1775022504501571e+00  -5.3869716472008493e+00  -5.5901980950893222e+00  -5.7859187913975774e+00  -5.9760413203246889e+00  -6.1584485143593035e+00  -6.3360688121200353e+00  -6.5063898605969008e+00  -6.6733048686527603e+00  -6.8336097074751994e+00  -6.9886074257817477e+00  -7.1383333498170893e+00  -7.2812871161086168e+00  -7.4204610430390510e+00  -7.5562460219774117e+00  -7.6865940492046416e+00  -7.8137195514684112e+00  -7.9365171679018385e+00  -8.0537015611758811e+00  -8.1670177075935459e+00  -8.2780195023734855e+00  -8.3848541734226050e+00  -8.4868606840574632e+00  -8.5859803054042949e+00  -8.6832043430473629e+00  -8.7760119072418057e+00  -8.8666607727361484e+00  -8.9535176285257148e+00  -9.0378685400157099e+00  -9.1195109453815508e+00  -9.1984646500820393e+00  -9.2748722970121094e+00  -9.3493788067594199e+00  -9.4205006578797423e+00  -9.4886979128322757e+00  -9.5557391436341135e+00  -9.6195110178131920e+00  -9.6819743933352225e+00  -9.7411457799861783e+00  -9.7995196389340915e+00  -9.8548837189376677e+00  -9.9092973753570259e+00  -9.9612949945052911e+00  -1.0012575213084913e+01  -1.0061173481260763e+01  -1.0108761450581914e+01  -1.0153195112418526e+01  -1.0197259245490489e+01  -1.0239484257816757e+01  -1.0281368670320823e+01  -1.0321823898533250e+01  -1.0360542024202884e+01  -1.0397736521211121e+01  -1.0433872273970863e+01  -1.0467698678213795e+01  -1.0500958374821382e+01  -1.0534256020004149e+01  -1.0565538662914003e+01  -1.0596641852346902e+01  -1.0625655926299912e+01  -1.0654486455328041e+01  -1.0681217892101532e+01  -1.0708054034413056e+01  -1.0733188047547481e+01  -1.0758233872058218e+01  -1.0781762048234439e+01  -1.0805576141647226e+01  -1.0829084130944290e+01  -1.0850533735740074e+01  -1.0872600858224111e+01  -1.0893668969533406e+01  -1.0912760308456471e+01  -1.0931814704187122e+01  -1.0951520134114622e+01  -1.0970091103316769e+01  -1.0987302440166239e+01  -1.1005513488394282e+01  -1.1023481143613134e+01  -1.1040301523288059e+01  -1.1057492835875143e+01  -1.1073576574414499e+01  -1.1089895392893052e+01  -1.1106409749854631e+01  -1.1121884068819469e+01  -1.1137113846868226e+01  -1.1153121021462656e+01  -1.1167970909178292e+01  -1.1183764891118667e+01  -1.1199032350527048e+01  -1.1215347061779600e+01  -1.1230913966103884e+01  -1.1247306793637485e+01  -1.1262462182143265e+01  -1.1279326660582086e+01  -1.1297272051856012e+01  -1.1314824354057667e+01  -1.1333630231093577e+01  -1.1352155304031934e+01  -1.1370386299588487e+01  -1.1390846874280911e+01  -1.1412423639533170e+01  -1.1434234931863202e+01  -1.1456526377264945e+01  -1.1480734998352430e+01  -1.1505281658357923e+01  -1.1531902494395492e+01  -1.1559313399336595e+01  -1.1589214209816559e+01  -1.1620123132661133e+01  -1.1653132454374431e+01  -1.1688175728799418e+01  -1.1725953672695450e+01  -1.1764376126319451e+01  -1.1806378467566994e+01  -1.1850221443143134e+01  -1.1897961996990857e+01  -1.1948242243669736e+01  -1.2000682880297935e+01  -1.2057515404873383e+01  -1.2118783859324383e+01  -1.2182934997079041e+01  -1.2252197517700589e+01  -1.2324845296648434e+01  -1.2401842943401467e+01  -1.2484859576896262e+01  -1.2572339304898975e+01  -1.2665821466817153e+01  -1.2763957471533214e+01  -1.2868791019648610e+01  -1.2979817132050274e+01  -1.3095802848046729e+01  -1.3218488166562997e+01  -1.3346781464947091e+01  -1.3480675142793739e+01  -1.3618325913184702e+01  -1.3755448479083803e+01  -1.3887396200312951e+01  -1.3989822970440171e+01  -1.3730506294850437e+01  -1.3515993269713546e+01  -1.3319305758792371e+01  -1.3135610620926313e+01  -1.2962448661112035e+01  -1.2800070994212115e+01  -1.2648796866877523e+01  -1.2505154563108825e+01  -1.2369350874035938e+01  -1.2241445417412054e+01  -1.2120691034422244e+01  -1.2007856542623662e+01  -1.1902464583887920e+01  -1.1802049955484922e+01  -1.1706540299168465e+01  -1.1616139253743508e+01  -1.1530591670347809e+01  -1.1450927993214478e+01  -1.1375725470024900e+01  -1.1302648033260692e+01  -1.1233170490394244e+01  -1.1166793736020830e+01  -1.1103550948538018e+01  -1.1044629819666163e+01  -1.0989429294290540e+01  -1.0934838371752960e+01  -1.0882238506833529e+01  -1.0831779890184659e+01  -1.0784355609326250e+01  -1.0738735609909217e+01  -1.0693695335090046e+01  -1.0650849366998321e+01  -1.0608651111350257e+01  -1.0568505975711107e+01  -1.0528593812278917e+01  -1.0490459496817385e+01  -1.0454307600384418e+01  -1.0417526684482029e+01  -1.0381979809069824e+01  -1.0346305259294752e+01  -1.0312191299132593e+01  -1.0277353126742106e+01  -1.0243058362882250e+01  -1.0209194354723664e+01  -1.0176538922883626e+01  -1.0144033293668205e+01  -1.0111576110757630e+01  -1.0078681157209951e+01  -1.0045654320777389e+01  -1.0013944898287669e+01  -9.9809591627802163e+00  -9.9488435231865822e+00  -9.9170992778400144e+00  -9.8842407148254967e+00  -9.8504709873693610e+00  -9.8177011724526775e+00  -9.7851311302691784e+00  -9.7509317893897443e+00  -9.7158992197630614e+00  -9.6816357295224069e+00  -9.6456888385928465e+00  -9.6100749402528791e+00  -9.5753767373305685e+00  -9.5386776998505969e+00  -9.5008690112336556e+00  -9.4631296031213985e+00  -9.4237480944785244e+00  -9.3847548679956692e+00  -9.3461190885497505e+00  -9.3054368006760022e+00  -9.2631716234497912e+00  -9.2204519006097190e+00  -9.1766408439513771e+00  -9.1324678835110653e+00  -9.0883897751339298e+00  -9.0427181696560019e+00  -8.9952998411688565e+00  -8.9476414271031750e+00  -8.8976955160907991e+00  -8.8477681948780713e+00  -8.7976893289573166e+00  -8.7452061172936482e+00  -8.6908763544802845e+00  -8.6363379207673692e+00  -8.5809849674222498e+00  -8.5224372116758005e+00  -8.4623142678161667e+00  -8.4004148148104019e+00  -8.3388619104775064e+00  -8.2762416607902178e+00  -8.2109515435678428e+00  -8.1432837389164892e+00  -8.0736763470129045e+00  -8.0032013370108857e+00  -7.9299270673373554e+00  -7.8554869114886259e+00  -7.7782734761953609e+00  -7.6998868684598936e+00  -7.6191642258101338e+00  -7.5375124671701466e+00  -7.4520725594826738e+00  -7.3638134202818346e+00  -7.2738997879609224e+00  -7.1804606039960595e+00  -7.0858011133847230e+00  -6.9891984081836274e+00  -6.8885349064116710e+00  -6.7847432122472764e+00  -6.6793111074633522e+00  -6.5697431485035791e+00  -6.4576985113002010e+00  -6.3430944242591050e+00  -6.2242121178523053e+00  -6.1026999724870423e+00  -5.9768362449886983e+00  -5.8484749570298140e+00  -5.7150653786001069e+00  -5.5779497496352706e+00  -5.4369090207408108e+00  -5.2932601525440379e+00  -5.1454763719745413e+00  -4.9936881633443209e+00  -4.8359754104714057e+00  -4.6722356114058199e+00  -4.5044951515289959e+00  -4.3324080740407940e+00  -4.1567453018949774e+00  -3.9733239553324102e+00  -3.7846316518418739e+00  -3.5918161347472153e+00  -3.3923887796191816e+00  -3.1860190109994937e+00  -2.9748654554132878e+00  -2.7564646299878941e+00  -2.5301414136438578e+00  -2.2975711689174720e+00  -2.0594014031876982e+00  -1.8129516786855411e+00  -1.5577915747109730e+00  -1.2954472829253296e+00  -1.0247441163833615e+00  -7.4655510091921351e-01  -4.5838283459821877e-01  -1.6244345147097458e-01  1.4437356898137538e-01  4.6029134236125396e-01  7.8682051580136636e-01  1.1224213840651271e+00  1.4698684672840134e+00  1.8282353669841864e+00  2.1973405250669069e+00  2.5768473265165492e+00  2.9707912099636520e+00  3.3769203762621371e+00  3.7966199128463685e+00  4.2295362170785307e+00  4.6767831429425675e+00  5.1389005254505999e+00  5.6163374613080519e+00  6.1098840544081447e+00  6.6188145661478437e+00  7.1426150843285372e+00  7.6858293256292178e+00  8.2467577757822177e+00  8.8275865003443155e+00  9.4268697510156283e+00  1.0047346653515875e+01  1.0687832521563344e+01  1.1351636757909786e+01  1.2035576797485801e+01  1.2743094020427110e+01  1.3477573400005554e+01  1.4236440008101667e+01  1.5020843053947440e+01  1.5829807082559157e+01  1.6668293676876075e+01  1.7536410926498000e+01  1.8432731275839114e+01  1.9362838760398617e+01  2.0322482836704957e+01  2.1317126364430411e+01  2.2346273954272412e+01  2.3410483136825981e+01  2.4511533143514210e+01  2.5648396749011418e+01  2.6822965495128923e+01  2.8042843557015473e+01  2.9306538911798182e+01  3.0608757765071122e+01  3.1961524571869248e+01  3.3354852911264182e+01  3.4803745819425139e+01  3.6294216736298935e+01  3.7839521645989549e+01  3.9416060254426078e+01  4.1055215459882177e+01  4.2724073743191646e+01  4.4392904797946244e+01  9.0889154118679993e+00  0.0000000000000000e+00  0.0000000000000000e+00  0.0000000000000000e+00  4.4730716275041637e+01  4.5383001324995462e+01  9.0648088730236172e+00  9.0204705371600280e+00  8.9346374264080985e+00  8.8340147290662721e+00  8.6958363290571139e+00  8.5219484475348253e+00  8.3411373792810668e+00  8.1101266445459412e+00  7.8267641005625377e+00  7.5431800549590999e+00  7.1139294418728918e+00  6.8825140447256139e+00  6.0896245928652375e+00  5.0683782013776213e+00  6.3679388735692939e+00  0.0000000000000000e+00  0.0000000000000000e+00  0.0000000000000000e+00  0.0000000000000000e+00  0.0000000000000000e+00  0.0000000000000000e+00  0.0000000000000000e+00  0.0000000000000000e+00  0.0000000000000000e+00  0.0000000000000000e+00  0.0000000000000000e+00  0.0000000000000000e+00  0.0000000000000000e+00  0.0000000000000000e+00  0.0000000000000000e+00  0.0000000000000000e+00  0.0000000000000000e+00  0.0000000000000000e+00  0.0000000000000000e+00  0.0000000000000000e+00  0.0000000000000000e+00  0.0000000000000000e+00  0.0000000000000000e+00  0.0000000000000000e+00  0.0000000000000000e+00  0.0000000000000000e+00  0.0000000000000000e+00  0.0000000000000000e+00  0.0000000000000000e+00  0.0000000000000000e+00  5.1660956095188411e+00  5.8032810121635716e+00  6.1623143649980721e+00  6.7274478482923108e+00  7.2802996076269926e+00  7.6538515896083865e+00  7.9364824041808442e+00  8.2092673249286978e+00  8.4043434752564270e+00  8.6054842121716870e+00  8.7671711312757736e+00  8.8848435320777526e+00  8.9777161887919696e+00  9.0447048077612102e+00  9.0817231800492273e+00  8.0266035526459234e+00  6.4927588811564956e+00  1.0479167587493835e+01  9.1369055328592470e+00  6.7377523760959521e+00  8.8246335027303608e+00  4.9678608796533288e+00  1.1843352607785794e+01  8.0327344404103584e+00  8.5179989840962627e+00  1.3562603078490609e+01  1.4472109641000070e+00  5.1809438464975779e+00  5.5828441193931138e+00  1.5930867813119212e+01  -4.0883631753069736e+00  -6.2868822279677374e+00  -1.1964676877690819e+00  1.4458174824670309e+01  1.1815971714084865e+01  5.2797491957168816e+00  -7.3213140409200168e+00  -9.1298143049838849e+00  9.1756800770123679e+00  -3.6263250506450510e-02  1.7625428465054497e+01  2.3040829490705907e+00  1.5289345346725684e+01  -5.2521718352461928e+00  -7.5134615361151154e+00  2.1779530859916294e+00  6.5399840149418162e+00  -9.7966396919983723e+00  -4.0112112650821157e+00  5.1208495660239821e+00  -5.7851626282913502e+00  -1.6294725772148446e+00  2.1369658010533747e+01  3.0761689129030067e+01  -7.7111314073534745e+00  -9.2115989653869352e+00  -8.7042035559210387e+00  -9.8344308910941791e+00  -1.0633895748135147e+01  -1.1197450136063843e+01  1.7803525926047591e+01  -6.9960139357456557e+00  -4.1029844166874652e+00  1.6240077379926798e+00  1.1032731805759179e+01  5.1826201099592630e+00  1.6178353712342577e+01  -1.0167347627720735e+01  -1.1999257885458432e+01  -4.0732215856555412e+00  -8.0173900135490523e+00  -5.8464366246127177e+00  6.2266319947956967e+00  -9.3773335473091795e+00  3.1048107875630667e+01  -8.8892665723749840e+00  -1.0277967444227398e+01  9.5654451979707407e+00  -1.0056201893613618e+01  -1.1152990056392946e+01  2.9358571534147764e+01  3.8029034902314521e+01  -1.0546795611558316e+01  -1.0848344325565476e+01  -3.5741148546029611e+00  2.4515082811802107e+00  -6.3822922008662912e+00  -8.4172197764686700e+00  2.4868261617850180e+00  -7.2981767724118851e-02  -4.9971473387798415e+00  -2.2929075475760303e+00  -7.7612255442199478e+00  2.2807722543983225e+01  1.0754617344735626e+00  6.1322277187787417e+00  -9.2643035802314095e+00  -1.1116873995617368e+01  -1.1371130367724749e+01  -1.1849599957498416e+01  -1.2109416412981815e+01  -9.5679557543372979e+00  -1.0002246048495923e+01  -9.9341849963167146e+00  3.4733815578118445e+01  1.2625599632748779e+01  -1.2546270927425670e+01  4.1284684269853562e+00  1.1026472363763215e+01  -7.6655686267144434e+00  -1.3205180617614293e+01  7.4657936303735477e+00  5.9719367446573530e+00  1.8696678508750789e+01  -8.8771074966406260e+00  2.7988858837157427e+01  -6.7203805907318142e+00  -5.3096619304796473e+00  -7.9277563324932752e+00  -1.0405517889249246e+01  -1.0855385415016865e+01  4.9738485595386797e+00  -9.0157287564855046e+00  -9.3898894356561939e+00  -7.2514592196278542e+00  -6.3343146228563363e+00  -1.0552619524859654e+01  -4.0736792341919577e+00  1.7970554507524792e+01  8.7715619333417116e+00  -3.0331592133479450e+00  1.9455634860065544e+01  2.9384037707858987e+01  3.7696210423812673e+01  -1.0330098050948195e+01  5.7151099320513090e+00  -1.1344166445391227e+01  -1.0865371998849220e+01  -1.1405255958936960e+01  -1.2234816375350002e+01  5.7599314874259822e+00  5.8163297696076901e+00  4.1624806380879740e+01  1.1224245041608379e+01  -2.8186826651171981e+00  -1.2188857429718281e+00  -1.1108300599559318e+01  6.4582677343954886e+00  -8.3851147988450396e+00  9.8565686433324302e+00  7.3421544670218690e+00  -2.4594760165567462e+00  -8.4748460336218514e+00  -1.1686939517565603e+01  -1.0769562757714208e+01  -8.8211587557928492e+00  -1.1026973194708027e+01  -9.9083940181008092e+00  2.7413541665717065e+00  -9.7844626817900284e+00  -9.4537519073969847e+00  7.2243931122439786e+00  -4.1539337806289254e+00  5.5197384641057194e+00  -9.6623944056384392e+00  -5.7208838484446050e+00  -1.1203364092303456e+01  4.3346926545796499e+01  6.1185101933056609e+00  9.2591450768013548e+00  4.7760332683583784e-01  8.5158076470708561e+00  3.6893092929680662e+01  1.1423476806204913e+01  6.5071055457119487e+00  -1.2317385435372485e+01  1.1148709963344512e+00  6.6070396608149391e+00  1.3904892371430039e+01  5.8508717226941487e+00  5.1226236629032638e+00  8.7701433285793957e+00  5.1197248663815218e+00  -1.7517657225196079e+00  8.8361435758604294e+00  -9.8627885192164335e+00  1.2760131544400220e+01  -7.6098263673476785e+00  -9.6301700108931243e+00  -4.3028344301655569e-01  -1.3135803541718527e+01  -1.2641979895601182e+01  -2.5341477447021132e+00  9.4667138307212966e+00  5.6099757489892532e+00  7.8493829141547513e+00  -7.7937005847983922e+00  1.4241707151865445e+01  -1.1281078148447463e+01  -1.1506640609422769e+01  -4.8130714563859316e+00  -8.2189002791445098e+00  1.0400575871574993e+01  -1.1943658726835892e+01  -1.3156699830033691e+01  -8.9941644136265904e+00  2.2230570192713710e+01  -9.7650967703506142e-01  -8.1640431183186255e+00  -1.0281699332614254e+01  -1.0676570258051488e+01  3.6889506660034987e-01  8.0974977242260693e-01  9.9928436359374171e+00  -5.1015591406113163e+00  1.1659946503538642e+01  -6.0060521838133720e+00  -1.0124803669197487e+01  5.0765053983058284e+00  1.0075540322646717e+01  -1.0232591847324350e+01  5.1996291980121168e+00  2.1290638159109868e+01  -6.9341915253835387e+00  2.0979122650952661e+01  6.2500574070446948e+00  -3.4133285678528216e+00  1.0968797757751137e+01  -1.0549728398541303e+01  -6.2817092774180221e+00  4.2436701233166163e+00  1.6150888207348395e+01  -9.3089951502795731e+00  2.3527117621209452e+01  2.6373230255814515e+00  -3.5701542640380572e+00  -7.8426255300827199e+00  6.3848793754978903e+00  7.7917661193091350e+00  6.7084380201543210e+00  -1.3192088619931198e+01  -1.1795420511139627e+01  -8.9092451031416573e+00  -1.0723759598054084e+01  -1.0902606271554911e+01  3.2567822454757032e+00  6.4302473062463728e+00  9.2788526174656969e+00  -8.6622254580535127e+00  -9.0613038957076899e+00  -2.4844245534277715e-01  2.3316616889525381e+01  -2.0194519859475757e+00  -1.1091480265148521e+01  -1.1914765778637433e+01  -1.0075007729998722e+01  -1.2706237255709052e+01  -7.0935228474638059e+00  -8.1344973462906349e+00  -9.2575246414977563e+00  2.8385495376426871e+01  -3.7542681152526258e+00  -6.3194539615020071e+00  -9.8339244693038861e+00  -5.2673158738008601e+00  -1.0981935828667936e+01  -7.0793126272488731e+00  -1.1230461644694913e+01  -6.9655724417614797e+00  -7.5150091412598137e+00  -2.0820884128266695e+00  2.9033790821437790e+01  3.5463618440618042e+01  -9.6540109437575339e+00  1.7919203694157321e+01  -1.3674660199889910e+01  -8.2253450657817400e+00  -6.9743655024499969e+00  8.3212931053249886e+00  8.4474557174363625e+00  9.1931975291628625e+00  1.1398171511552562e+01  4.2027090281893953e+00  6.5099411247730137e+00  5.6994145976050046e+00  8.1121235445269627e-02  -1.0455905153614241e+01  -6.2190317922396998e+00  -9.5632539072790586e+00  7.3197021550062011e+00  -1.0280187378331355e+01  -4.5197610557176713e+00  -4.1351112006179926e+00  -1.0813752884124042e+01  6.5918672637606788e+00  5.8489448778608359e+00  5.2348365095719718e+00  6.8042970325258727e+00  -1.0893035209155357e+01  -1.2626713503718076e+01  -5.2180736588325773e+00  -7.4916291743994803e+00  -9.5444811380553922e+00  -6.9234591444825533e+00  2.9476255733265901e+00  -1.1758784629031585e+01  6.4102809285542603e+00  9.1200669547794284e+00  -2.3119739525873131e+00  -4.2132347618844559e+00  2.8466976595830982e+01  3.3793419258207848e+01  1.9824560402340925e+01  7.6251775600644516e+00  3.2926436741045588e+00  6.6298453648571858e+00  9.8020395834098988e+00  -2.3565912529761017e+00  9.0052627888136545e+00  4.1775514920772281e+00  -9.7181016804072105e+00  -3.2480957648250066e+00  9.1560046140570748e+00  -1.1119178743865969e+01  4.6828657982136006e+00  4.7607727035909786e+00  9.2608647800612847e+00  6.6494656093650928e+00  1.0495909482260146e+01  1.3252193519653339e+01  -1.1123970060022616e+01  7.9599316948579872e+00  1.4124559572520052e+01  -1.0412808472069102e+01  -1.1380569637960576e+01  -8.4368620806236674e+00  2.6347235934285000e-02  -1.1654347587522656e+01  4.2403227398747219e+01  -5.9908521693829657e+00  -1.4459722844780989e+00  1.7694296099273346e+00  3.2470645115094832e+00  8.4362406695479564e+00  1.5353483574423699e+01  -8.4643374682642669e+00  1.0576718298548050e+01  4.4433055099955494e+00  7.0779468784883930e+00  3.2671267569405906e+01  -9.4700601860957292e+00  8.6883876312227237e-01  6.1920759343235261e+00  -1.1827216387696923e+01  7.6394358477337345e+00  -1.2125263826082787e+01  -7.7818333038232748e+00  -5.1956742194394301e-01  1.1214752946462459e+01  8.5998900551073021e+00  -3.4904753413315344e-02  -