<?xml version="1.0"?>
<VTKFile type="UnstructuredGrid"  version="0.1"  >
<UnstructuredGrid>
<Piece  NumberOfPoints="5665" NumberOfCells="10866">
<Points>
<DataArray  type="Float64"  NumberOfComponents="3"  format="ascii">0 0 0  0.00523802650254 0.0121532396601 0  0.0103467684479 0.0168997657438 0  0.0154340886717 0.0204190411838 0  0.0205102348999 0.0232981583029 0  0.0255791778495 0.0257645995174 0  0.0306429550051 0.0279350923438 0  0.0357027775993 0.0298790283068 0  0.0407594355585 0.0316416622967 0  0.04581347821 0.0332544652851 0  0.0508653060816 0.0347403835123 0  0.0559152220438 0.0361167684281 0  0.0609634618506 0.0373971263865 0  0.0660102133967 0.0385922218733 0  0.0710556294024 0.0397108042408 0  0.0760998360768 0.040760104003 0  0.0811429392151 0.0417461821674 0  0.0861850286024 0.0426741825307 0  0.091226181266 0.0435485179813 0  0.0962664639231 0.0443730107549 0  0.101305934856 0.0451509998331 0  0.106344645369 0.0458854244307 0  0.111382640935 0.0465788897722 0  0.116419962116 0.0472337195455 0  0.121456645295 0.0478519981879 0  0.126492723281 0.0484356053155 0  0.131528225802 0.0489862440096 0  0.136563179912 0.049505464248 0  0.141597610335 0.0499946824638 0  0.14663153975 0.0504551979851 0  0.151664989038 0.0508882069432 0  0.156697977481 0.051294814111 0  0.161730522945 0.0516760430344 0  0.166762642032 0.0520328447497 0  0.171794350206 0.0523661053196 0  0.176825661915 0.0526766523796 0  0.181856590685 0.0529652608471 0  0.186887149208 0.0532326579222 0  0.191917349423 0.0534795274834 0  0.196947202578 0.0537065139662 0  0.201976719293 0.0539142257971 0  0.207005909613 0.054103238443 0  0.212034783054 0.054274097128 0  0.217063348648 0.0544273192609 0  0.22209161498 0.0545633966097 0  0.227119590218 0.0546827972549 0  0.232147282152 0.0547859673491 0  0.237174698213 0.0548733327044 0  0.242201845504 0.0549453002291 0  0.247228730821 0.0550022592305 0  0.252255360672 0.0550445825984 0  0.257281741298 0.0550726278822 0  0.26230787869 0.0550867382745 0  0.267333778603 0.0550872435086 0  0.272359446573 0.0550744606812 0  0.277384887926 0.0550486950064 0  0.282410107795 0.055010240508 0  0.287435111128 0.0549593806574 0  0.2924599027 0.05489638896 0  0.297484487118 0.0548215294971 0  0.302508868838 0.054735057427 0  0.307533052166 0.0546372194474 0  0.312557041267 0.0545282542252 0  0.317580840174 0.0544083927944 0  0.322604452793 0.0542778589256 0  0.32762788291 0.0541368694706 0  0.332651134193 0.0539856346817 0  0.337674210204 0.0538243585109 0  0.342697114397 0.0536532388878 0  0.347719850126 0.05347246798 0  0.352742420649 0.0532822324362 0  0.357764829133 0.0530827136137 0  0.362787078653 0.0528740877917 0  0.367809172202 0.0526565263713 0  0.372831112689 0.0524301960631 0  0.377852902947 0.0521952590636 0  0.382874545729 0.0519518732206 0  0.387896043718 0.0517001921895 0  0.392917399526 0.0514403655803 0  0.397938615696 0.0511725390953 0  0.402959694705 0.0508968546607 0  0.407980638966 0.0506134505488 0  0.413001450832 0.0503224614953 0  0.418022132594 0.0500240188088 0  0.423042686487 0.049718250475 0  0.428063114688 0.0494052812553 0  0.43308341932 0.0490852327802 0  0.438103602454 0.0487582236378 0  0.443123666107 0.0484243694572 0  0.448143612247 0.0480837829889 0  0.453163442794 0.0477365741799 0  0.45818315962 0.0473828502456 0  0.463202764548 0.0470227157382 0  0.468222259359 0.0466562726115 0  0.473241645789 0.046283620283 0  0.478260925528 0.0459048556925 0  0.483280100228 0.0455200733585 0  0.488299171496 0.0451293654312 0  0.4933181409 0.0447328217439 0  0.498337009969 0.0443305298617 0  0.503355780193 0.0439225751275 0  0.508374453024 0.0435090407068 0  0.513393029875 0.04309000763 0  0.5184115121240001 0.0426655548328 0  0.523429901114 0.0422357591951 0  0.528448198151 0.0418006955781 0  0.533466404508 0.0413604368595 0  0.538484521422 0.0409150539681 0  0.543502550097 0.0404646159158 0  0.548520491706 0.0400091898289 0  0.553538347388 0.0395488409786 0  0.558556118251 0.0390836328089 0  0.56357380537 0.0386136269646 0  0.56859140979 0.038138883318 0  0.573608932526 0.0376594599935 0  0.578626374563 0.0371754133928 0  0.583643736855 0.0366867982178 0  0.5886610203280001 0.0361936674937 0  0.593678225878 0.03569607259 0  0.598695354374 0.0351940632416 0  0.603712406656 0.0346876875693 0  0.6087293835349999 0.0341769920983 0  0.613746285797 0.0336620217776 0  0.618763114198 0.0331428199974 0  0.623779869469 0.0326194286062 0  0.628796552315 0.0320918879282 0  0.633813163412 0.0315602367784 0  0.638829703412 0.0310245124788 0  0.64384617294 0.030484750873 0  0.648862572597 0.0299409863403 0  0.653878902958 0.0293932518103 0  0.658895164572 0.0288415787756 0  0.663911357964 0.0282859973052 0  0.668927483634 0.0277265360567 0  0.673943542058 0.0271632222888 0  0.678959533688 0.0265960818725 0  0.683975458952 0.0260251393027 0  0.688991318252 0.025450417709 0  0.694007111969 0.0248719388664 0  0.69902284046 0.0242897232052 0  0.704038504057 0.0237037898213 0  0.709054103072 0.0231141564854 0  0.7140696377919999 0.0225208396527 0  0.71908510848 0.0219238544714 0  0.724100515378 0.0213232147915 0  0.729115858707 0.0207189331735 0  0.734131138662 0.0201110208964 0  0.739146355418 0.0194994879654 0  0.744161509129 0.0188843431198 0  0.749176599923 0.0182655938405 0  0.754191627911 0.017643246357 0  0.759206593179 0.0170173056545 0  0.764221495793 0.0163877754806 0  0.769236335796 0.0157546583519 0  0.774251113211 0.0151179555607 0  0.77926582804 0.0144776671806 0  0.784280480262 0.0138337920731 0  0.789295069837 0.0131863278932 0  0.794309596702 0.012535271095 0  0.799324060775 0.0118806169373 0  0.804338461953 0.0112223594892 0  0.809352800111 0.0105604916349 0  0.814367075104 0.009895005079049999 0  0.819381286767 0.009225890351540001 0  0.824395434915 0.00855313681244 0  0.829409519341 0.007876732656520001 0  0.834423539818 0.00719666491788 0  0.839437496102 0.00651291947429 0  0.844451387924 0.00582548105153 0  0.849465214999 0.00513433322757 0  0.854478977019 0.0044394584366 0  0.859492673658 0.00374083797302 0  0.86450630457 0.00303845199529 0  0.869519869388 0.00233227952969 0  0.8745333677280001 0.00162229847397 0  0.879546799183 0.000908485600908 0  0.884560163328 0.000190816561787 0  0.889573459719 -0.000530734110215 0  0.894586687892 -0.00125619299673 0  0.899599847364 -0.00198558779101 0  0.904612937631 -0.00271894729474 0  0.909625958173 -0.00345630141504 0  0.914638908446 -0.00419768116146 0  0.919651787892 -0.00494311864308 0  0.9246645959300001 -0.00569264706566 0  0.929677331962 -0.0064463007289 0  0.93468999537 -0.00720411502372 0  0.939702585517 -0.007966126429639999 0  0.944715101748 -0.008732372512219999 0  0.9497275433870001 -0.00950289192052 0  0.954739909742 -0.0102777243847 0  0.9597522001 -0.0110569107135 0  0.96476441373 -0.0118404927922 0  0.969776549882 -0.0126285135801 0  0.974788607787 -0.013421017108 0  0.9798005866590001 -0.0142180484769 0  0.984812485692 -0.0150196538551 0  0.98982430406 -0.0158258804761 0  0.994836040921 -0.0166367766374 0  0.999847695414 -0.0174523916974 0  0.994810629349 -0.0180926058358 0  0.9897736456539999 -0.0187281010754 0  0.984736743465 -0.0193589267749 0  0.97969992194 -0.0199851312315 0  0.974663180255 -0.0206067616788 0  0.969626517604 -0.0212238642852 0  0.964589933199 -0.0218364841514 0  0.959553426272 -0.0224446653085 0  0.954516996073 -0.0230484507158 0  0.949480641871 -0.0236478822584 0  0.944444362954 -0.0242430007451 0  0.939408158627 -0.0248338459061 0  0.9343720282170001 -0.0254204563904 0  0.929335971068 -0.0260028697637 0  0.9242999865430001 -0.0265811225053 0  0.919264074025 -0.0271552500063 0  0.914228232913 -0.0277252865664 0  0.90919246263 -0.0282912653912 0  0.904156762614 -0.0288532185899 0  0.899121132325 -0.0294111771721 0  0.89408557124 -0.0299651710448 0  0.889050078856 -0.0305152290097 0  0.88401465469 -0.0310613787601 0  0.878979298279 -0.0316036468777 0  0.873944009177 -0.0321420588292 0  0.868908786959 -0.0326766389633 0  0.863873631221 -0.0332074105073 0  0.858838541576 -0.0337343955635 0  0.853803517658 -0.0342576151055 0  0.848768559121 -0.0347770889748 0  0.843733665639 -0.0352928358772 0  0.838698836904 -0.0358048733784 0  0.83366407263 -0.0363132179004 0  0.828629372551 -0.0368178847175 0  0.82359473642 -0.0373188879518 0  0.818560164011 -0.0378162405693 0  0.813525655117 -0.0383099543753 0  0.808491209554 -0.0388000400096 0  0.803456827155 -0.0392865069423 0  0.798422507775 -0.0397693634688 0  0.793388251292 -0.0402486167049 0  0.7883540576 -0.0407242725815 0  0.783319926618 -0.0411963358398 0  0.778285858283 -0.0416648100257 0  0.773251852555 -0.0421296974842 0  0.7682179094130001 -0.0425909993539 0  0.7631840288590001 -0.043048715561 0  0.758150210916 -0.0435028448133 0  0.753116455627 -0.0439533845943 0  0.748082763058 -0.0444003311562 0  0.743049133296 -0.0448436795139 0  0.738015566449 -0.0452834234378 0  0.732982062648 -0.0457195554473 0  0.7279486220469999 -0.0461520668028 0  0.722915244818 -0.0465809474992 0  0.71788193116 -0.0470061862575 0  0.712848681291 -0.0474277705173 0  0.707815495453 -0.0478456864284 0  0.702782373912 -0.0482599188427 0  0.697749316952 -0.048670451305 0  0.692716324886 -0.0490772660446 0  0.687683398047 -0.0494803439657 0  0.68265053679 -0.0498796646378 0  0.677617741496 -0.050275206286 0  0.6725850125690001 -0.0506669457807 0  0.667552350436 -0.0510548586271 0  0.66251975555 -0.0514389189539 0  0.657487228385 -0.0518190995028 0  0.652454769442 -0.0521953716159 0  0.647422379246 -0.0525677052243 0  0.642390058346 -0.0529360688354 0  0.637357807317 -0.0533004295197 0  0.63232562676 -0.0536607528977 0  0.6272935173 -0.0540170031258 0  0.622261479589 -0.0543691428823 0  0.617229514303 -0.0547171333519 0  0.612197622148 -0.0550609342106 0  0.607165803852 -0.0554005036097 0  0.602134060175 -0.0557357981591 0  0.5971023919 -0.0560667729098 0  0.592070799839 -0.0563933813366 0  0.587039284832 -0.0567155753188 0  0.582007847748 -0.0570333051213 0  0.576976489483 -
[...]
<PointData  Scalars="u"> 
<DataArray  type="Float64"  Name="u"  format="ascii">5.6668667289324468e+01  5.4502651262313996e+01  5.2437363183509305e+01  5.0514997806901597e+01  4.8725126265342247e+01  4.7006781910336521e+01  4.5385630602947757e+01  4.3830793017415189e+01  4.2342561698920719e+01  4.0921840521080853e+01  3.9560114156409433e+01  3.8255244369810548e+01  3.7003343231129108e+01  3.5801826811649377e+01  3.4647335268214313e+01  3.3537055771630982e+01  3.2469777801615159e+01  3.1443260580856229e+01  3.0455196509504436e+01  2.9506678259769505e+01  2.8593620181816899e+01  2.7716342111232194e+01  2.6870593172615564e+01  2.6057347085596312e+01  2.5272252604509305e+01  2.4518075627572571e+01  2.3789860604713230e+01  2.3086332358899693e+01  2.2410359759864473e+01  2.1759793734053432e+01  2.1130912466819751e+01  2.0526490685281079e+01  1.9941910361921668e+01  1.9377585663386757e+01  1.8835272111948584e+01  1.8310660607332743e+01  1.7806773520752341e+01  1.7318771920396184e+01  1.6846350884136609e+01  1.6392975850741074e+01  1.5956054500582839e+01  1.5532037638260670e+01  1.5123494676053294e+01  1.4726424855313738e+01  1.4346846664757329e+01  1.3978615193554353e+01  1.3624625764166288e+01  1.3281142962325054e+01  1.2947787527125168e+01  1.2628270691653491e+01  1.2320316007653625e+01  1.2020782352270027e+01  1.1733091009271314e+01  1.1451858205653673e+01  1.1180322141140460e+01  1.0920489387431422e+01  1.0667858787379839e+01  1.0422779597585313e+01  1.0188055375635972e+01  9.9618127123774993e+00  9.7407300716195930e+00  9.5293677995166846e+00  9.3235788825479737e+00  9.1232717506360785e+00  8.9315271923839763e+00  8.7443350258807975e+00  8.5649704614569657e+00  8.3896050101789896e+00  8.2208621968403399e+00  8.0600104583168548e+00  7.9029742849283711e+00  7.7504882105615165e+00  7.6037971487439009e+00  7.4606469793480770e+00  7.3201795721401357e+00  7.1870875724793271e+00  7.0591050045331976e+00  6.9341895424820974e+00  6.8145187079466023e+00  6.6972339461065973e+00  6.5823717999156486e+00  6.4722525780196909e+00  6.3669076866120173e+00  6.2627437059690338e+00  6.1615913602293801e+00  6.0653720767217774e+00  5.9734421189843268e+00  5.8825971354996200e+00  5.7965275561183986e+00  5.7115909655310686e+00  5.6306224629439638e+00  5.5519981167129906e+00  5.4761710240111903e+00  5.4028948945052822e+00  5.3310968901652931e+00  5.2620620491591215e+00  5.1940129642259025e+00  5.1299592941300665e+00  5.0662657036570202e+00  5.0062285966529059e+00  4.9462217613089043e+00  4.8901129208892478e+00  4.8338464701837047e+00  4.7813183678883604e+00  4.7292401490606490e+00  4.6805153179903067e+00  4.6315091373523884e+00  4.5851415990879021e+00  4.5376754802458548e+00  4.4942806222491534e+00  4.4516711911647908e+00  4.4124046952757574e+00  4.3738326659815998e+00  4.3360946793774389e+00  4.2991028356688883e+00  4.2634080212846861e+00  4.2274690983754795e+00  4.1943999086275827e+00  4.1633121344552348e+00  4.1320600628528448e+00  4.1029272805485029e+00  4.0728902104096143e+00  4.0449868696563511e+00  4.0161337329610598e+00  3.9899361641982796e+00  3.9630942808683369e+00  3.9386859752993977e+00  3.9134672055930220e+00  3.8904222202240626e+00  3.8686020867098900e+00  3.8460083009747659e+00  3.8258340173896164e+00  3.8050524320532517e+00  3.7830607479096998e+00  3.7629717672086715e+00  3.7447623072154186e+00  3.7255447502795693e+00  3.7059258071964307e+00  3.6891886357943857e+00  3.6723621189411841e+00  3.6552374992113026e+00  3.6394056784448945e+00  3.6229509887714895e+00  3.6077305467385448e+00  3.5913935013540708e+00  3.5754652748599103e+00  3.5591890977949348e+00  3.5444389922863020e+00  3.5278757747470708e+00  3.5130950003730166e+00  3.4971503118551426e+00  3.4826631952327607e+00  3.4662771462404516e+00  3.4509734046170499e+00  3.4329695304072594e+00  3.4168696159625593e+00  3.4015966603494743e+00  3.3849391779876021e+00  3.3685532754401439e+00  3.3500595951581995e+00  3.3294465625136511e+00  3.3103601678161114e+00  3.2901535795334009e+00  3.2687701656768193e+00  3.2454542236444985e+00  3.2225582707786695e+00  3.1968495303947053e+00  3.1713947644350058e+00  3.1432685981380208e+00  3.1150869696385723e+00  3.0837215860905358e+00  3.0509315587973891e+00  3.0160540821307822e+00  2.9797954042418047e+00  2.9393121100207225e+00  2.8978831337985076e+00  2.8523216412494219e+00  2.8055640130971931e+00  2.7547421651196973e+00  2.6988806988664145e+00  2.6409434191914820e+00  2.5801753923017055e+00  2.5138268905510039e+00  2.4442068682787963e+00  2.3681528102873073e+00  2.2869022345832524e+00  2.2022079113536805e+00  2.1104177126552384e+00  2.0147583044409081e+00  1.9109542528326018e+00  1.8016925918246072e+00  1.6866342917220090e+00  1.5640577653328529e+00  1.4358352720536536e+00  1.2997317220791111e+00  1.1585822793302005e+00  1.0103699123493810e+00  8.6181697937772039e-01  7.1358308970565643e-01  5.9230296202899768e-01  8.5314292599523578e-01  1.0733402645004595e+00  1.2741740909787873e+00  1.4624025828301788e+00  1.6393939244343261e+00  1.8063235632540144e+00  1.9645383890905326e+00  2.1118513734683981e+00  2.2497024166608917e+00  2.3798882876392398e+00  2.5015441205646667e+00  2.6174272913468641e+00  2.7279320361574984e+00  2.8304478100740127e+00  2.9258835168485531e+00  3.0163553162271457e+00  3.1016352328812071e+00  3.1842088391848793e+00  3.2629663940778091e+00  3.3348566946061329e+00  3.4027837197969548e+00  3.4668396539130901e+00  3.5275513903206082e+00  3.5867657310734100e+00  3.6452650212831554e+00  3.6983445855466619e+00  3.7487427445949453e+00  3.7966500616673295e+00  3.8442380471131905e+00  3.8903650474982707e+00  3.9329114789040100e+00  3.9749796498011505e+00  4.0143609558786881e+00  4.0535649667949913e+00  4.0902532643660621e+00  4.1267419061309418e+00  4.1643819560784907e+00  4.1987227336862896e+00  4.2330332814365814e+00  4.2652944039275917e+00  4.2985069560490876e+00  4.3293697802433400e+00  4.3601134032815265e+00  4.3904860185417274e+00  4.4220460992395063e+00  4.4535663364631448e+00  4.4848077879092338e+00  4.5150978212666297e+00  4.5443667306428273e+00  4.5758659143530194e+00  4.6053959187691555e+00  4.6362926456419657e+00  4.6683600999088144e+00  4.6998063482375647e+00  4.7296157126600731e+00  4.7611838177382619e+00  4.7942208560816191e+00  4.8257831668294644e+00  4.8563900248780545e+00  4.8889102749673077e+00  4.9204077159976727e+00  4.9536040152363556e+00  4.9896323756788581e+00  5.0243599946755024e+00  5.0585881454499715e+00  5.0945905682245636e+00  5.1294691629360294e+00  5.1660415341040187e+00  5.2052600718669781e+00  5.2439248651334633e+00  5.2819353589376403e+00  5.3209057788306939e+00  5.3606232880316842e+00  5.4019703057682440e+00  5.4457098520705491e+00  5.4899581900794718e+00  5.5333839572844852e+00  5.5793699879855190e+00  5.6244490424006459e+00  5.6716777611946059e+00  5.7222440050832182e+00  5.7729026549593723e+00  5.8229349467464093e+00  5.8754570153633683e+00  5.9306052228201986e+00  5.9844800390976349e+00  6.0395831863606331e+00  6.0951100868388899e+00  6.1547549754274629e+00  6.2173460433360734e+00  6.2807496730476124e+00  6.3454109862437811e+00  6.4100340498639969e+00  6.4777979627998166e+00  6.5456456020695333e+00  6.6164564728398494e+00  6.6875998101788019e+00  6.7621466519182789e+00  6.8379015338540992e+00  6.9185115008345877e+00  6.9995081752039559e+00  7.0815543105330203e+00  7.1671892761727927e+00  7.2532976993448370e+00  7.3426158165205528e+00  7.4363743009421839e+00  7.5313735913901816e+00  7.6277043671465830e+00  7.7281582249093299e+00  7.8303467686052883e+00  7.9356192202486966e+00  8.0457824260031483e+00  8.1569065766845856e+00  8.2723321575945974e+00  8.3894354348518601e+00  8.5115988103353732e+00  8.6354221585981552e+00  8.7628462517362280e+00  8.8937673975234741e+00  9.0296342212086849e+00  9.1701362353630529e+00  9.3163131611699939e+00  9.4656224670793350e+00  9.6160675914503457e+00  9.7722206398193165e+00  9.9327473149041587e+00  1.0101774031750251e+01  1.0273256482564703e+01  1.0448461079539355e+01  1.0630578996217560e+01  1.0818497371394594e+01  1.1010140062560341e+01  1.1209299371657588e+01  1.1415316520041955e+01  1.1625429082774881e+01  1.1841268773008954e+01  1.2065526501134029e+01  1.2297022419993382e+01  1.2534097779147872e+01  1.2779786352487866e+01  1.3032115116069857e+01  1.3294415108353212e+01  1.3562938200269866e+01  1.3841960536120151e+01  1.4127643469500752e+01  1.4423208038459995e+01  1.4726707207146386e+01  1.5041615843772675e+01  1.5365065879052594e+01  1.5698837564229224e+01  1.6042865165643757e+01  1.6401326758333770e+01  1.6768681128283628e+01  1.7147920631023887e+01  1.7538036604161174e+01  1.7942069339671850e+01  1.8359246678705471e+01  1.8788848778875348e+01  1.9232274486047608e+01  1.9691354592342680e+01  2.0164921996662279e+01  2.0657106718125721e+01  2.1163975935538762e+01  2.1688828679727404e+01  2.2229604763314597e+01  2.2790131737078539e+01  2.3367769957578020e+01  2.3966728670670388e+01  2.4585041586800198e+01  2.5225584364872581e+01  2.5889958698838605e+01  2.6574441546696978e+01  2.7281655424259714e+01  2.8012518610587950e+01  2.8770529805666829e+01  2.9553969699537461e+01  3.0363408185141679e+01  3.1202461224918419e+01  3.2069804409227714e+01  3.2969344341974193e+01  3.3899051510396134e+01  3.4862108545146569e+01  3.5858300205816420e+01  3.6886984637629915e+01  3.7952392084559399e+01  3.9056168181555506e+01  4.0199300723001507e+01  4.1384331989588105e+01  4.2609667151621515e+01  4.3879700641695827e+01  4.5191160055926858e+01  4.6550847784562080e+01  4.7952584588231730e+01  4.9402949933374046e+01  5.0887173756550780e+01  5.2426931449649857e+01  5.4002989085798518e+01  5.5586996981366717e+01  2.4440259252832561e+01  0.0000000000000000e+00  0.0000000000000000e+00  0.0000000000000000e+00  5.5959862564529267e+01  5.6534922842151779e+01  2.4417097804268877e+01  2.4353837228406622e+01  2.4308771764883527e+01  2.4220201669461357e+01  2.4164090738385582e+01  2.3821937046849303e+01  2.3777235180482801e+01  2.3432932599331391e+01  2.3289736037340454e+01  2.2981928429959723e+01  2.2743681477590751e+01  2.2102697685682603e+01  2.1801599817283098e+01  1.8776307941005044e+01  2.7177847513313569e+01  0.0000000000000000e+00  0.0000000000000000e+00  0.0000000000000000e+00  0.0000000000000000e+00  0.0000000000000000e+00  0.0000000000000000e+00  0.0000000000000000e+00  0.0000000000000000e+00  0.0000000000000000e+00  0.0000000000000000e+00  0.0000000000000000e+00  0.0000000000000000e+00  0.0000000000000000e+00  0.0000000000000000e+00  0.0000000000000000e+00  0.0000000000000000e+00  0.0000000000000000e+00  0.0000000000000000e+00  0.0000000000000000e+00  0.0000000000000000e+00  0.0000000000000000e+00  0.0000000000000000e+00  0.0000000000000000e+00  0.0000000000000000e+00  0.0000000000000000e+00  0.0000000000000000e+00  0.0000000000000000e+00  0.0000000000000000e+00  0.0000000000000000e+00  0.0000000000000000e+00  1.9433546939427714e+01  2.1401567312147915e+01  2.1387664046670061e+01  2.1364606512381531e+01  2.2594572075931058e+01  2.2604977089327161e+01  2.3233309047815254e+01  2.3260867498411812e+01  2.3786043218173898e+01  2.3817220708358100e+01  2.4091356675312205e+01  2.4165570231106290e+01  2.4318782743606292e+01  2.4340512290878134e+01  2.4407164220749760e+01  2.3522567826964369e+01  2.0834447954750939e+01  2.5523984296610070e+01  2.4323446977550446e+01  2.1143227826258901e+01  2.3681416887056532e+01  1.9612506472107004e+01  2.6522386161018183e+01  2.2682254653174368e+01  2.2803554972787186e+01  2.7897161924679303e+01  1.6032316523099215e+01  1.6965677310854112e+01  1.9652903328740543e+01  2.9639335341064509e+01  1.0251438467230257e+01  8.1970369027393915e+00  1.3006183021667741e+01  2.7905295040312446e+01  2.5998804118109458e+01  1.9665521127102011e+01  7.0822849522846614e+00  5.2922879340542526e+00  2.3050744382110661e+01  1.4285434489927656e+01  3.1104946983395799e+01  1.6260157434726853e+01  2.8560952766294232e+01  8.9624161108209979e+00  6.9321126847779970e+00  1.7225097270527730e+01  2.0322626132561712e+01  4.7463069647471086e+00  1.0151854529006647e+01  1.8813682016160232e+01  8.6381249627980665e+00  1.2619437937912737e+01  3.4235014098375871e+01  4.3370239901580341e+01  6.6316346181951076e+00  5.2079353620334343e+00  5.8521626372261206e+00  4.7150602743585557e+00  3.9434945152503698e+00  3.3855709149654594e+00  3.0737870596861381e+01  7.3595172313148103e+00  1.0103835682841064e+01  1.5496670002294168e+01  2.4302507029675656e+01  1.9035230277037417e+01  2.9315570797417802e+01  4.3744601533154244e+00  2.6131530752450041e+00  1.1396826242099795e+01  6.5608337579819285e+00  8.6459430406911988e+00  1.7841797705116509e+01  5.1002112367137329e+00  4.3047752011566295e+01  5.5883163036840733e+00  4.2611182396601048e+00  2.4822966485370117e+01  4.5769504860338683e+00  3.4095903237765484e+00  4.1651223025452225e+01  4.9904887829764490e+01  4.0989577050227064e+00  3.7992500998562546e+00  1.0815367618572216e+01  1.7127753203630100e+01  7.9754208251691532e+00  6.0518464651852781e+00  1.7284389392858518e+01  1.4116010198690857e+01  9.2922408889486992e+00  1.1830509389751459e+01  6.6824666826253356e+00  3.5304658366774298e+01  1.4987992096276576e+01  1.9713475336625539e+01  5.3748310191089343e+00  3.5431322982344908e+00  3.2787073559269237e+00  2.8076358881018080e+00  2.4760015757265541e+00  4.9657340503757732e+00  4.5575351415942027e+00  4.7268610459726723e+00  4.6495317837504366e+01  2.5778640982656050e+01  2.0979356338643687e+00  1.8056614898629999e+01  2.4505781750962587e+01  6.9302282995196967e+00  1.4132216515260827e+00  2.2690455334618420e+01  1.3693735221242905e+01  3.1669198334900621e+01  5.7673056156402680e+00  4.0347606759594136e+01  7.8426986879177862e+00  9.1854914105022907e+00  7.1390881451783210e+00  4.1852177075727539e+00  3.7437319383186018e+00  1.0676741522971449e+01  5.4989749025912458e+00  5.1490196392021765e+00  7.1752371357615496e+00  8.0409669286950063e+00  4.1205880978135934e+00  1.0169335851049462e+01  3.1685125938114243e+01  2.4215351812710598e+01  1.1945535771005183e+01  3.2159105878223208e+01  4.1462254708103480e+01  4.9430002196988049e+01  4.3465763078783937e+00  1.8935719026364723e+01  3.3354644661667576e+00  3.8084745640628666e+00  3.2050935799546583e+00  2.3609607585379466e+00  1.6257628226876005e+01  2.1404599353469418e+01  5.2999431675237233e+01  2.5668444085312668e+01  1.1349548043345735e+01  1.2848330861572665e+01  3.5711297000179547e+00  2.0615650745778812e+01  6.1019364528387063e+00  2.4713460593708955e+01  2.2648211320498355e+01  1.1878919622942972e+01  6.1653081579286049e+00  2.9967520135627423e+00  3.9127858059953216e+00  5.6913243414291825e+00  3.6551116013096125e+00  4.6623965597619890e+00  1.6548974377404694e+01  4.8893342667156183e+00  5.2164954878333090e+00  2.1921457772253770e+01  1.0283414769233412e+01  1.2193303481995770e+01  4.8973463363760006e+00  8.6237179246732119e+00  3.5756089440812207e+00  5.4779432665448056e+01  1.5022337287934729e+01  2.4470264045618162e+01  1.4436035252931335e+01  2.2832890083428541e+01  4.8536319376202854e+01  2.5327173791541245e+01  2.0380378383152802e+01  2.3574438700909619e+00  1.5237989790713897e+01  2.0379630828308049e+01  2.8114819158744709e+01  1.8563707190076009e+01  1.8772709196287757e+01  2.2176578011671566e+01  1.9518017093789034e+01  1.2822185253592558e+01  2.4154693972930392e+01  4.8731730278497913e+00  2.5903059592762666e+01  7.0001502407297256e+00  5.1212297557217008e+00  1.4665861590287587e+01  1.4477404862726786e+00  2.0037013115465672e+00  1.1986047233385733e+01  2.4778505256562468e+01  1.1513782721839394e+01  2.3140671413987135e+01  6.6686506616101342e+00  2.7512645265490281e+01  3.4076863752830837e+00  3.1847953718311657e+00  1.0045478277961385e+01  6.1810528728041305e+00  2.5482424580513655e+01  2.7452442336012859e+00  1.4833446264523071e+00  5.5260302751620980e+00  3.5416314648410733e+01  1.3276965132651195e+01  6.3180539290150177e+00  4.3164603818053093e+00  3.9371261791502214e+00  1.4615396783589087e+01  1.5614417449798291e+01  2.3543623202839768e+01  9.2084619657022788e+00  2.6457356930354162e+01  8.3692030112781186e+00  4.4655739120384617e+00  1.9294522298537473e+01  2.5145048650119975e+01  4.4532059347456618e+00  1.8869336320399505e+01  3.4427002482005690e+01  7.4820757795836368e+00  3.4297866901739091e+01  1.6030636304451786e+01  1.0874696686902242e+01  2.5780820132629618e+01  4.1390456570685430e+00  8.2703172006035253e+00  1.8368451702752477e+01  2.9069255665837645e+01  5.2331493149492614e+00  3.6182217826911732e+01  1.7158250346017116e+01  1.0765163659456585e+01  6.5474726204395139e+00  1.8248280685828430e+01  2.3414792016513598e+01  2.2221913358066868e+01  1.4430043838829854e+00  2.8629324467168158e+00  5.7504913784322227e+00  3.9659465938034448e+00  3.7869999693663430e+00  1.7246209022890330e+01  2.1092648089804001e+01  2.4618675641110421e+01  5.8464772601092738e+00  5.4677332950679691e+00  1.3738714551653930e+01  3.5772135156036221e+01  1.2223040655600293e+01  3.5314673333596938e+00  2.7013412882258536e+00  4.6115564912679758e+00  1.9614630819292076e+00  7.4970012293035033e+00  6.4987039751766016e+00  5.4133640796315214e+00  4.0685707490047278e+01  1.0474796597113617e+01  8.0638230820022798e+00  4.7409546612390354e+00  8.9878724156195720e+00  3.7078414373864645e+00  7.5581680309369013e+00  3.4616640020057137e+00  7.4725616623645115e+00  6.9347984306899271e+00  1.2033954481603249e+01  4.1322401435089489e+01  4.7331980875388446e+01  4.8089263973469478e+00  3.0947132028555391e+01  9.4036677215128406e-01  6.1273738141353746e+00  7.3326027457690435e+00  2.3570865277991413e+01  2.3529347159566285e+01  2.4531411489563489e+01  2.5964882589782697e+01  1.8838202933789734e+01  2.1035503973414258e+01  1.9117948489883265e+01  1.4505948230753035e+01  4.1549334133942866e+00  8.0445230746170182e+00  4.9139300317449619e+00  2.2101519130107665e+01  4.2854706462981520e+00  9.7576111874032492e+00  1.0230861362041455e+01  3.7544909002029976e+00  1.9423835371922088e+01  1.4407126541295002e+01  1.8167929645080125e+01  2.1021481052329204e+01  3.7319527988484360e+00  1.9750831521659447e+00  9.2800513652757797e+00  7.0108839333226491e+00  5.0126159094685576e+00  7.6071799535609870e+00  1.6955569434198281e+01  2.8497581088278210e+00  2.0835702028378780e+01  2.4429670853914416e+01  1.2452773939044770e+01  1.0106256396241374e+01  4.0598836948116862e+01  4.5603328928084942e+01  3.2504089501494938e+01  2.2630546995339650e+01  1.7585889012914460e+01  2.1770270736748245e+01  2.4405583190130148e+01  1.1786172060101491e+01  2.4373736395940949e+01  1.7534620036301455e+01  4.9642504033081485e+00  1.1141730826781728e+01  2.3715437532062865e+01  3.5721968966377866e+00  1.8919262355171870e+01  1.8008500230173198e+01  2.4497196729075828e+01  2.1872527972474835e+01  2.4015924768568208e+01  2.6670637969553187e+01  3.5132352559437545e+00  2.1626017651269532e+01  2.8421155828342595e+01  4.2782993506218290e+00  3.3144860013516468e+00  6.0607962864666067e+00  1.5630874909392370e+01  3.0431152173821858e+00  5.3736635956260265e+01  8.3458591299718741e+00  1.2609724685165958e+01  1.5643099756504295e+01  1.7022429934133704e+01  2.3898570541861098e+01  2.8930298716684874e+01  6.1090273374896880e+00  2.5459503325141412e+01  1.7013792119321486e+01  2.0596907148879424e+01  4.5020183259307075e+01  5.1363235469227586e+00  1.4984853370338406e+01  1.4434994720301923e+01  2.8704126418993474e+00  2.1799998560931456e+01  2.5663701789658702e+00  6.6095754544912868e+00  1.3504579616472469e+01  2.5412286224848565e+01  2.3906292190273074e+01  1.4163086555712132e+01  1.2291627596142995e+01  1.8433379842957876e+01  1.5907487925098462e+01  4.5768436758889059e+00  2.4923770294264415e+01  3.9963406889933499e+00  1.0647731580268298e+01  3.2270503303049090e+00  1.7616160218170481e+01  1.2377020119376613e+01  1.5698790727912199e+01  7.5751056720333683e+00  2.2370132510731985e+01  2.7170708809922253e+01  5.9705606670808873e+00  2.3569436905451472e+01  6.7229219462753038e+00  2.4242514654940951e+01  8.7761918960384211e+00  4.0240037939838249e+00  3