<?xml version="1.0"?>
<VTKFile type="UnstructuredGrid"  version="0.1"  >
<UnstructuredGrid>
<Piece  NumberOfPoints="5665" NumberOfCells="10866">
<Points>
<DataArray  type="Float64"  NumberOfComponents="3"  format="ascii">0 0 0  0.00523802650254 0.0121532396601 0  0.0103467684479 0.0168997657438 0  0.0154340886717 0.0204190411838 0  0.0205102348999 0.0232981583029 0  0.0255791778495 0.0257645995174 0  0.0306429550051 0.0279350923438 0  0.0357027775993 0.0298790283068 0  0.0407594355585 0.0316416622967 0  0.04581347821 0.0332544652851 0  0.0508653060816 0.0347403835123 0  0.0559152220438 0.0361167684281 0  0.0609634618506 0.0373971263865 0  0.0660102133967 0.0385922218733 0  0.0710556294024 0.0397108042408 0  0.0760998360768 0.040760104003 0  0.0811429392151 0.0417461821674 0  0.0861850286024 0.0426741825307 0  0.091226181266 0.0435485179813 0  0.0962664639231 0.0443730107549 0  0.101305934856 0.0451509998331 0  0.106344645369 0.0458854244307 0  0.111382640935 0.0465788897722 0  0.116419962116 0.0472337195455 0  0.121456645295 0.0478519981879 0  0.126492723281 0.0484356053155 0  0.131528225802 0.0489862440096 0  0.136563179912 0.049505464248 0  0.141597610335 0.0499946824638 0  0.14663153975 0.0504551979851 0  0.151664989038 0.0508882069432 0  0.156697977481 0.051294814111 0  0.161730522945 0.0516760430344 0  0.166762642032 0.0520328447497 0  0.171794350206 0.0523661053196 0  0.176825661915 0.0526766523796 0  0.181856590685 0.0529652608471 0  0.186887149208 0.0532326579222 0  0.191917349423 0.0534795274834 0  0.196947202578 0.0537065139662 0  0.201976719293 0.0539142257971 0  0.207005909613 0.054103238443 0  0.212034783054 0.054274097128 0  0.217063348648 0.0544273192609 0  0.22209161498 0.0545633966097 0  0.227119590218 0.0546827972549 0  0.232147282152 0.0547859673491 0  0.237174698213 0.0548733327044 0  0.242201845504 0.0549453002291 0  0.247228730821 0.0550022592305 0  0.252255360672 0.0550445825984 0  0.257281741298 0.0550726278822 0  0.26230787869 0.0550867382745 0  0.267333778603 0.0550872435086 0  0.272359446573 0.0550744606812 0  0.277384887926 0.0550486950064 0  0.282410107795 0.055010240508 0  0.287435111128 0.0549593806574 0  0.2924599027 0.05489638896 0  0.297484487118 0.0548215294971 0  0.302508868838 0.054735057427 0  0.307533052166 0.0546372194474 0  0.312557041267 0.0545282542252 0  0.317580840174 0.0544083927944 0  0.322604452793 0.0542778589256 0  0.32762788291 0.0541368694706 0  0.332651134193 0.0539856346817 0  0.337674210204 0.0538243585109 0  0.342697114397 0.0536532388878 0  0.347719850126 0.05347246798 0  0.352742420649 0.0532822324362 0  0.357764829133 0.0530827136137 0  0.362787078653 0.0528740877917 0  0.367809172202 0.0526565263713 0  0.372831112689 0.0524301960631 0  0.377852902947 0.0521952590636 0  0.382874545729 0.0519518732206 0  0.387896043718 0.0517001921895 0  0.392917399526 0.0514403655803 0  0.397938615696 0.0511725390953 0  0.402959694705 0.0508968546607 0  0.407980638966 0.0506134505488 0  0.413001450832 0.0503224614953 0  0.418022132594 0.0500240188088 0  0.423042686487 0.049718250475 0  0.428063114688 0.0494052812553 0  0.43308341932 0.0490852327802 0  0.438103602454 0.0487582236378 0  0.443123666107 0.0484243694572 0  0.448143612247 0.0480837829889 0  0.453163442794 0.0477365741799 0  0.45818315962 0.0473828502456 0  0.463202764548 0.0470227157382 0  0.468222259359 0.0466562726115 0  0.473241645789 0.046283620283 0  0.478260925528 0.0459048556925 0  0.483280100228 0.0455200733585 0  0.488299171496 0.0451293654312 0  0.4933181409 0.0447328217439 0  0.498337009969 0.0443305298617 0  0.503355780193 0.0439225751275 0  0.508374453024 0.0435090407068 0  0.513393029875 0.04309000763 0  0.5184115121240001 0.0426655548328 0  0.523429901114 0.0422357591951 0  0.528448198151 0.0418006955781 0  0.533466404508 0.0413604368595 0  0.538484521422 0.0409150539681 0  0.543502550097 0.0404646159158 0  0.548520491706 0.0400091898289 0  0.553538347388 0.0395488409786 0  0.558556118251 0.0390836328089 0  0.56357380537 0.0386136269646 0  0.56859140979 0.038138883318 0  0.573608932526 0.0376594599935 0  0.578626374563 0.0371754133928 0  0.583643736855 0.0366867982178 0  0.5886610203280001 0.0361936674937 0  0.593678225878 0.03569607259 0  0.598695354374 0.0351940632416 0  0.603712406656 0.0346876875693 0  0.6087293835349999 0.0341769920983 0  0.613746285797 0.0336620217776 0  0.618763114198 0.0331428199974 0  0.623779869469 0.0326194286062 0  0.628796552315 0.0320918879282 0  0.633813163412 0.0315602367784 0  0.638829703412 0.0310245124788 0  0.64384617294 0.030484750873 0  0.648862572597 0.0299409863403 0  0.653878902958 0.0293932518103 0  0.658895164572 0.0288415787756 0  0.663911357964 0.0282859973052 0  0.668927483634 0.0277265360567 0  0.673943542058 0.0271632222888 0  0.678959533688 0.0265960818725 0  0.683975458952 0.0260251393027 0  0.688991318252 0.025450417709 0  0.694007111969 0.0248719388664 0  0.69902284046 0.0242897232052 0  0.704038504057 0.0237037898213 0  0.709054103072 0.0231141564854 0  0.7140696377919999 0.0225208396527 0  0.71908510848 0.0219238544714 0  0.724100515378 0.0213232147915 0  0.729115858707 0.0207189331735 0  0.734131138662 0.0201110208964 0  0.739146355418 0.0194994879654 0  0.744161509129 0.0188843431198 0  0.749176599923 0.0182655938405 0  0.754191627911 0.017643246357 0  0.759206593179 0.0170173056545 0  0.764221495793 0.0163877754806 0  0.769236335796 0.0157546583519 0  0.774251113211 0.0151179555607 0  0.77926582804 0.0144776671806 0  0.784280480262 0.0138337920731 0  0.789295069837 0.0131863278932 0  0.794309596702 0.012535271095 0  0.799324060775 0.0118806169373 0  0.804338461953 0.0112223594892 0  0.809352800111 0.0105604916349 0  0.814367075104 0.009895005079049999 0  0.819381286767 0.009225890351540001 0  0.824395434915 0.00855313681244 0  0.829409519341 0.007876732656520001 0  0.834423539818 0.00719666491788 0  0.839437496102 0.00651291947429 0  0.844451387924 0.00582548105153 0  0.849465214999 0.00513433322757 0  0.854478977019 0.0044394584366 0  0.859492673658 0.00374083797302 0  0.86450630457 0.00303845199529 0  0.869519869388 0.00233227952969 0  0.8745333677280001 0.00162229847397 0  0.879546799183 0.000908485600908 0  0.884560163328 0.000190816561787 0  0.889573459719 -0.000530734110215 0  0.894586687892 -0.00125619299673 0  0.899599847364 -0.00198558779101 0  0.904612937631 -0.00271894729474 0  0.909625958173 -0.00345630141504 0  0.914638908446 -0.00419768116146 0  0.919651787892 -0.00494311864308 0  0.9246645959300001 -0.00569264706566 0  0.929677331962 -0.0064463007289 0  0.93468999537 -0.00720411502372 0  0.939702585517 -0.007966126429639999 0  0.944715101748 -0.008732372512219999 0  0.9497275433870001 -0.00950289192052 0  0.954739909742 -0.0102777243847 0  0.9597522001 -0.0110569107135 0  0.96476441373 -0.0118404927922 0  0.969776549882 -0.0126285135801 0  0.974788607787 -0.013421017108 0  0.9798005866590001 -0.0142180484769 0  0.984812485692 -0.0150196538551 0  0.98982430406 -0.0158258804761 0  0.994836040921 -0.0166367766374 0  0.999847695414 -0.0174523916974 0  0.994810629349 -0.0180926058358 0  0.9897736456539999 -0.0187281010754 0  0.984736743465 -0.0193589267749 0  0.97969992194 -0.0199851312315 0  0.974663180255 -0.0206067616788 0  0.969626517604 -0.0212238642852 0  0.964589933199 -0.0218364841514 0  0.959553426272 -0.0224446653085 0  0.954516996073 -0.0230484507158 0  0.949480641871 -0.0236478822584 0  0.944444362954 -0.0242430007451 0  0.939408158627 -0.0248338459061 0  0.9343720282170001 -0.0254204563904 0  0.929335971068 -0.0260028697637 0  0.9242999865430001 -0.0265811225053 0  0.919264074025 -0.0271552500063 0  0.914228232913 -0.0277252865664 0  0.90919246263 -0.0282912653912 0  0.904156762614 -0.0288532185899 0  0.899121132325 -0.0294111771721 0  0.89408557124 -0.0299651710448 0  0.889050078856 -0.0305152290097 0  0.88401465469 -0.0310613787601 0  0.878979298279 -0.0316036468777 0  0.873944009177 -0.0321420588292 0  0.868908786959 -0.0326766389633 0  0.863873631221 -0.0332074105073 0  0.858838541576 -0.0337343955635 0  0.853803517658 -0.0342576151055 0  0.848768559121 -0.0347770889748 0  0.843733665639 -0.0352928358772 0  0.838698836904 -0.0358048733784 0  0.83366407263 -0.0363132179004 0  0.828629372551 -0.0368178847175 0  0.82359473642 -0.0373188879518 0  0.818560164011 -0.0378162405693 0  0.813525655117 -0.0383099543753 0  0.808491209554 -0.0388000400096 0  0.803456827155 -0.0392865069423 0  0.798422507775 -0.0397693634688 0  0.793388251292 -0.0402486167049 0  0.7883540576 -0.0407242725815 0  0.783319926618 -0.0411963358398 0  0.778285858283 -0.0416648100257 0  0.773251852555 -0.0421296974842 0  0.7682179094130001 -0.0425909993539 0  0.7631840288590001 -0.043048715561 0  0.758150210916 -0.0435028448133 0  0.753116455627 -0.0439533845943 0  0.748082763058 -0.0444003311562 0  0.743049133296 -0.0448436795139 0  0.738015566449 -0.0452834234378 0  0.732982062648 -0.0457195554473 0  0.7279486220469999 -0.0461520668028 0  0.722915244818 -0.0465809474992 0  0.71788193116 -0.0470061862575 0  0.712848681291 -0.0474277705173 0  0.707815495453 -0.0478456864284 0  0.702782373912 -0.0482599188427 0  0.697749316952 -0.048670451305 0  0.692716324886 -0.0490772660446 0  0.687683398047 -0.0494803439657 0  0.68265053679 -0.0498796646378 0  0.677617741496 -0.050275206286 0  0.6725850125690001 -0.0506669457807 0  0.667552350436 -0.0510548586271 0  0.66251975555 -0.0514389189539 0  0.657487228385 -0.0518190995028 0  0.652454769442 -0.0521953716159 0  0.647422379246 -0.0525677052243 0  0.642390058346 -0.0529360688354 0  0.637357807317 -0.0533004295197 0  0.63232562676 -0.0536607528977 0  0.6272935173 -0.0540170031258 0  0.622261479589 -0.0543691428823 0  0.617229514303 -0.0547171333519 0  0.612197622148 -0.0550609342106 0  0.607165803852 -0.0554005036097 0  0.602134060175 -0.0557357981591 0  0.5971023919 -0.0560667729098 0  0.592070799839 -0.0563933813366 0  0.587039284832 -0.0567155753188 0  0.582007847748 -0.0570333051213 0  0.576976489483 -
[...]
<PointData  Scalars="u"> 
<DataArray  type="Float64"  Name="u"  format="ascii">5.0862472651573299e+01  4.8631849734685666e+01  4.6511528012834098e+01  4.4535161833094506e+01  4.2702002610723220e+01  4.0936177085055924e+01  3.9278142495655942e+01  3.7684862209184693e+01  3.6155736683677553e+01  3.4699531623671533e+01  3.3301589282468768e+01  3.1964560006710268e+01  3.0678485933268316e+01  2.9447386778242148e+01  2.8261927923718360e+01  2.7125014398569785e+01  2.6029055567167145e+01  2.4977538963040875e+01  2.3969946110195043e+01  2.2996828382345960e+01  2.2061648884165553e+01  2.1159635203431293e+01  2.0293452360490026e+01  1.9458540004364650e+01  1.8657241236988131e+01  1.7882683236325708e+01  1.7136301028868434e+01  1.6420090653796620e+01  1.5729060973845327e+01  1.5060529420645068e+01  1.4418249704856912e+01  1.3797334189629451e+01  1.3199227420610683e+01  1.2624456252225986e+01  1.2068188910408455e+01  1.1533374793589511e+01  1.1015415619708730e+01  1.0515602846710513e+01  1.0035925381191992e+01  9.5719205671627279e+00  9.1224829134701064e+00  8.6903641580334963e+00  8.2716602122895484e+00  7.8708335579964315e+00  7.4816247779872214e+00  7.1068265694296953e+00  6.7431740098892332e+00  6.3920571740957026e+00  6.0554321780901770e+00  5.7293169978661727e+00  5.4125406764112176e+00  5.1077943265857213e+00  4.8119747612231096e+00  4.5276762911739219e+00  4.2552636251915859e+00  3.9897668292379946e+00  3.7327076613484493e+00  3.4862346184218707e+00  3.2469889727075842e+00  3.0140751935650947e+00  2.7904912077605473e+00  2.5734865534169300e+00  2.3641715289447167e+00  2.1631101507067148e+00  1.9674283403272230e+00  1.7793745475473008e+00  1.5963141442719730e+00  1.4210343335823756e+00  1.2500256224235244e+00  1.0856935719420640e+00  9.2444683341388290e-01  7.6975971837413082e-01  6.2004208266670913e-01  4.7563915342686508e-01  3.3817940606132441e-01  2.0365576394909651e-01  7.2061031257032795e-02  -5.4117494824996608e-02  -1.7743816289530129e-01  -2.9635201913638676e-01  -4.0953268012028288e-01  -5.1909819841463534e-01  -6.2685154776461549e-01  -7.3018750415599909e-01  -8.2877882524440749e-01  -9.2491387446988438e-01  -1.0196250261350288e+00  -1.1097537981846015e+00  -1.1982583315695226e+00  -1.2827881400785413e+00  -1.3651401985428673e+00  -1.4448714911350959e+00  -1.5221335073478592e+00  -1.5968842390114810e+00  -1.6696068648050681e+00  -1.7391072120530808e+00  -1.8055897071604778e+00  -1.8714227025309500e+00  -1.9337577988447161e+00  -1.9952391770146534e+00  -2.0531193520696789e+00  -2.1106989595827925e+00  -2.1648886937207119e+00  -2.2186173886123779e+00  -2.2697451008701015e+00  -2.3205917935395757e+00  -2.3684443127332222e+00  -2.4155738747235800e+00  -2.4589648910214232e+00  -2.5026746604825050e+00  -2.5444998415856204e+00  -2.5864608145539254e+00  -2.6269861967832226e+00  -2.6657649188350288e+00  -2.7029166583200404e+00  -2.7391055636186503e+00  -2.7727147915584607e+00  -2.8061838048842067e+00  -2.8399007260443319e+00  -2.8714668328895714e+00  -2.9031041874806798e+00  -2.9322807413007066e+00  -2.9615155556323893e+00  -2.9882499132048395e+00  -3.0155135063108682e+00  -3.0407953165796258e+00  -3.0664465905803890e+00  -3.0901839465977554e+00  -3.1144543828465370e+00  -3.1386554459146736e+00  -3.1605350788940183e+00  -3.1833988894547511e+00  -3.2050493162775546e+00  -3.2243391546716818e+00  -3.2438340747359287e+00  -3.2642942882026613e+00  -3.2833367218817533e+00  -3.3008774007458666e+00  -3.3199031255445486e+00  -3.3386143704392106e+00  -3.3561197145773924e+00  -3.3741873138777074e+00  -3.3910052111061519e+00  -3.4081365029470798e+00  -3.4252566864223297e+00  -3.4412515075698469e+00  -3.4570293821761684e+00  -3.4739226496416844e+00  -3.4892386589202822e+00  -3.5058641462659339e+00  -3.5217263650735458e+00  -3.5389618265447886e+00  -3.5550688797400167e+00  -3.5722808722414920e+00  -3.5876648571143899e+00  -3.6052031432305123e+00  -3.6242058548878369e+00  -3.6426661484732565e+00  -3.6624453395613736e+00  -3.6816791093432699e+00  -3.7002385143079648e+00  -3.7213532515144889e+00  -3.7434750846784777e+00  -3.7658987756882736e+00  -3.7886524239783337e+00  -3.8136457934015557e+00  -3.8386441820675086e+00  -3.8660989132929617e+00  -3.8940480584438113e+00  -3.9247771780077030e+00  -3.9561984256302818e+00  -3.9897842726959083e+00  -4.0252625456281548e+00  -4.0637048530620108e+00  -4.1025162807623285e+00  -4.1452234180241598e+00  -4.1894414293441402e+00  -4.2378767408845084e+00  -4.2886903881511627e+00  -4.3413626103193854e+00  -4.3987539645727622e+00  -4.4607486252833786e+00  -4.5253409264346693e+00  -4.5952961945053907e+00  -4.6682931485868320e+00  -4.7455981699435519e+00  -4.8292999987918117e+00  -4.9171399786539451e+00  -5.0114561106988864e+00  -5.1099554543279666e+00  -5.2154027878248970e+00  -5.3272672936222421e+00  -5.4439449373080189e+00  -5.5675967152719110e+00  -5.6967194009981821e+00  -5.8316655788112755e+00  -5.9700996680893450e+00  -6.1081475041529956e+00  -6.2408568830052999e+00  -6.3452684484770554e+00  -6.0871292042551657e+00  -5.8728503906674323e+00  -5.6759017548359632e+00  -5.4918955367306674e+00  -5.3183212444452321e+00  -5.1557010682710116e+00  -5.0044783452039914e+00  -4.8605488574067799e+00  -4.7242595024419929e+00  -4.5960040569377494e+00  -4.4748479903156628e+00  -4.3619251881945713e+00  -4.2568240058683626e+00  -4.1563836011087760e+00  -4.0607122833634044e+00  -3.9702218584230087e+00  -3.8845964406909133e+00  -3.8052755357672514e+00  -3.7305527476493592e+00  -3.6574388958619104e+00  -3.5879002158766364e+00  -3.5214132244833070e+00  -3.4581558367058176e+00  -3.3994667660561797e+00  -3.3449801020638152e+00  -3.2905456109841378e+00  -3.2381253027088386e+00  -3.1878112983955007e+00  -3.1408543312726613e+00  -3.0958046545553626e+00  -3.0510126694448414e+00  -3.0086525339708508e+00  -2.9667027984436660e+00  -2.9270019748635390e+00  -2.8873287950821545e+00  -2.8496587322570712e+00  -2.8144756390409351e+00  -2.7781004515392165e+00  -2.7430749748105114e+00  -2.7076824125448198e+00  -2.6741473158199773e+00  -2.6395283722075273e+00  -2.6055765993845053e+00  -2.5721048859449436e+00  -2.5402351002782706e+00  -2.5085652283006517e+00  -2.4768912987916782e+00  -2.4446126819694163e+00  -2.4120320396583672e+00  -2.3812578723181757e+00  -2.3487907262685392e+00  -2.3175599959930993e+00  -2.2869118426050696e+00  -2.2550487289921524e+00  -2.2218960768339406e+00  -2.1900820830677410e+00  -2.1586730623016597e+00  -2.1252707345268154e+00  -2.0907752370246517e+00  -2.0573075348541825e+00  -2.0219027778150513e+00  -1.9872523661156269e+00  -1.9539991338322089e+00  -1.9183312462164601e+00  -1.8813639153148205e+00  -1.8446532231275627e+00  -1.8060290435571769e+00  -1.7680126009634134e+00  -1.7307404695593878e+00  -1.6911492925694713e+00  -1.6498112599631460e+00  -1.6080658991051016e+00  -1.5652525430370683e+00  -1.5223594161207574e+00  -1.4798557426709500e+00  -1.4356845105931864e+00  -1.3894899365266202e+00  -1.3434116422060483e+00  -1.2947274343741808e+00  -1.2463344509771359e+00  -1.1982771100767473e+00  -1.1476320205304360e+00  -1.0948355633387656e+00  -1.0421572019814389e+00  -9.8889779775393860e-01  -9.3192616307681764e-01  -8.7352940762445364e-01  -8.1322547964828662e-01  -7.5396798322343794e-01  -6.9399681461937923e-01  -6.3128571090916052e-01  -5.6621958104483650e-01  -4.9896808931643410e-01  -4.3112196833035021e-01  -3.6018556051438699e-01  -2.8842415746156785e-01  -2.1370980492805511e-01  -1.3822492267229264e-01  -6.0389396126935613e-02  1.7605989860623953e-02  9.9712297033742153e-02  1.8472435380886398e-01  2.7105985097362356e-01  3.6111528256019787e-01  4.5207964276750651e-01  5.4451788821766611e-01  6.4113595546187185e-01  7.4093880669481271e-01  8.4199315243374995e-01  9.4721209068582690e-01  1.0546671956121261e+00  1.1640846619817360e+00  1.2781752225769927e+00  1.3944908406446108e+00  1.5153174289234650e+00  1.6381436379139922e+00  1.7662075729815441e+00  1.8977069977706895e+00  2.0329290676996532e+00  2.1701588008950439e+00  2.3112406417830247e+00  2.4558760057957563e+00  2.6065230201153211e+00  2.7636365778222318e+00  2.9242170634657612e+00  3.0889586154936763e+00  3.2562131128733047e+00  3.4314324638556832e+00  3.6118570544052075e+00  3.7960073624698949e+00  3.9866055952208050e+00  4.1841505603646905e+00  4.3858617298323086e+00  4.5943302934501302e+00  4.8106673900298738e+00  5.0329179210014106e+00  5.2602264173349198e+00  5.4955388869190749e+00  5.7394362945982058e+00  5.9898777550390356e+00  6.2484959089457606e+00  6.5137848954853048e+00  6.7890503437178262e+00  7.0712142702311889e+00  7.3642625481324027e+00  7.6657660160310179e+00  7.9776449100199418e+00  8.2977661167599539e+00  8.6295429570366817e+00  8.9716730002606795e+00  9.3240695393242117e+00  9.6856331503729614e+00  1.0061722951158849e+01  1.0449341248494177e+01  1.0850286076567640e+01  1.1263775066610885e+01  1.1691165476258105e+01  1.2132900577775569e+01  1.2589312482654488e+01  1.3061004403450276e+01  1.3547458744775220e+01  1.4047457897292979e+01  1.4566571164258841e+01  1.5102442081344968e+01  1.5657735936437920e+01  1.6230324283278847e+01  1.6823664105778875e+01  1.7435702288071614e+01  1.8070456066707774e+01  1.8724096287600787e+01  1.9400099472805927e+01  2.0102740692756697e+01  2.0828761569365536e+01  2.1579388527298718e+01  2.2353088150529327e+01  2.3155518348711361e+01  2.3986675023865228e+01  2.4844532089148817e+01  2.5735396409315896e+01  2.6653955928023436e+01  2.7606698398590972e+01  2.8592595373748104e+01  2.9612102824960964e+01  3.0667394570981880e+01  3.1757044108752510e+01  3.2882589850766415e+01  3.4052403348339887e+01  3.5264729409266479e+01  3.6513677637835869e+01  3.7812107095710594e+01  3.9149441084890611e+01  4.0541314281043910e+01  4.1973742222089854e+01  4.3460218201226965e+01  4.4977498540447641e+01  4.6556254479455710e+01  4.8164415230522728e+01  4.9775556053408579e+01  1.6548349188325613e+01  0.0000000000000000e+00  0.0000000000000000e+00  0.0000000000000000e+00  5.0129809000346292e+01  5.0735925906886777e+01  1.6513441491793628e+01  1.6467085215706625e+01  1.6375138783756789e+01  1.6276562778675125e+01  1.6152965206840456e+01  1.5923770509158613e+01  1.5755660074990379e+01  1.5402336456789975e+01  1.5152285703169733e+01  1.4759061546025157e+01  1.4305049034134550e+01  1.4034500120939972e+01  1.3115987572681625e+01  1.1132480278043536e+01  1.5591955236337713e+01  0.0000000000000000e+00  0.0000000000000000e+00  0.0000000000000000e+00  0.0000000000000000e+00  0.0000000000000000e+00  0.0000000000000000e+00  0.0000000000000000e+00  0.0000000000000000e+00  0.0000000000000000e+00  0.0000000000000000e+00  0.0000000000000000e+00  0.0000000000000000e+00  0.0000000000000000e+00  0.0000000000000000e+00  0.0000000000000000e+00  0.0000000000000000e+00  0.0000000000000000e+00  0.0000000000000000e+00  0.0000000000000000e+00  0.0000000000000000e+00  0.0000000000000000e+00  0.0000000000000000e+00  0.0000000000000000e+00  0.0000000000000000e+00  0.0000000000000000e+00  0.0000000000000000e+00  0.0000000000000000e+00  0.0000000000000000e+00  0.0000000000000000e+00  0.0000000000000000e+00  1.2547004983320274e+01  1.2646842285220048e+01  1.2983073712233709e+01  1.3597208863175283e+01  1.4439222403737412e+01  1.4971511193499076e+01  1.5320585031461523e+01  1.5507727854483763e+01  1.5891166426780936e+01  1.5984846996989113e+01  1.6208367733214612e+01  1.6330805846308579e+01  1.6429722317215553e+01  1.6502004422121377e+01  1.6536231625152787e+01  1.5526948539764652e+01  1.3933243805611735e+01  1.7882095449288158e+01  1.6604376539992131e+01  1.4134160206229152e+01  1.6224497370675323e+01  1.2465436506512223e+01  1.9132237842902406e+01  1.5434407644921231e+01  1.5707689532676136e+01  2.0699901172877876e+01  8.8206428688805794e+00  1.1889061243131854e+01  1.2721306155306292e+01  2.2791868239228045e+01  3.3037192617404365e+00  1.1228775003834242e+00  6.1421477343925561e+00  2.1226088131350902e+01  1.8932162681335775e+01  1.2605616029356455e+01  2.0337184517375462e-01  -1.6055194337319647e+00  1.6193176039409330e+01  7.2545082334902773e+00  2.4376527810743287e+01  9.4650444749953095e+00  2.1962443506732907e+01  2.1357393385488437e+00  -4.1014450786593215e-02  1.0282500219283170e+01  1.3582706916740865e+01  -2.2609879187442150e+00  3.3673924776965078e+00  1.2141490317053634e+01  1.7374217203564919e+00  5.7530487993892017e+00  2.7780402115640065e+01  3.6883599862815373e+01  -2.0153512686030151e-01  -1.6710553863657747e+00  -1.0846232239439213e+00  -2.2165674537120683e+00  -3.0131640471277485e+00  -3.5898544128643239e+00  2.4300265513286522e+01  5.1424163122733391e-01  3.2977878299540846e+00  8.7821093558488670e+00  1.7775800843818168e+01  1.2284344938673261e+01  2.2801995753489177e+01  -2.5985724702564563e+00  -4.3855129807916491e+00  3.6333942775788461e+00  -3.9595711561275526e-01  1.7064442651102552e+00  1.2674878512512814e+01  -1.7959511389356952e+00  3.7024345458585834e+01  -1.3072568801348150e+00  -2.6718697002243430e+00  1.7034154113127148e+01  -2.3930906625013457e+00  -3.5400000280467947e+00  3.5434389528093874e+01  4.3755911793151796e+01  -2.8809213029390630e+00  -3.1886719959789738e+00  3.8976065424612574e+00  1.0013213961372047e+01  1.1175823861468135e+00  -8.4222615412855040e-01  1.0155485724361958e+01  7.2556864104806857e+00  2.4489012783785951e+00  5.0358889726837992e+00  -2.0527483223870507e-01  2.9039922214778120e+01  8.2545866819426195e+00  1.3084250111735196e+01  -1.6018825619572039e+00  -3.4595919258357868e+00  -3.7272418685635245e+00  -4.2067359182273281e+00  -4.4885355967835823e+00  -1.9596660369620380e+00  -2.3836566443525116e+00  -2.2569239034749500e+00  4.0553523688952012e+01  1.9291634966826230e+01  -4.9055941047440541e+00  1.1278225361937929e+01  1.7876428289592408e+01  -4.2442378989507604e-02  -5.5670664815438702e+00  1.4974978155178414e+01  1.0301968776147698e+01  2.5215009934850542e+01  -1.2168318884930602e+00  3.4108909167843173e+01  8.7422982768916779e-01  2.2339186942988798e+00  -2.7557839597541089e-01  -2.7760118590684084e+00  -3.2241636312414417e+00  8.1866315066571751e+00  -1.4162951037209153e+00  -1.7789763196246988e+00  2.8898057852098896e-01  1.1697688469897380e+00  -2.8710186752197004e+00  3.3343939490362735e+00  2.4817389635505666e+01  1.6232797497084125e+01  4.4632723393034972e+00  2.5826038664862551e+01  3.5347396938503586e+01  4.3397897972052945e+01  -2.6449312828232108e+00  1.2875786524516990e+01  -3.6839563076224282e+00  -3.1891419653241302e+00  -3.7684274871732804e+00  -4.5991877887184565e+00  1.1688147549122354e+01  1.3314767558967088e+01  4.7267345551480659e+01  1.8430788933810238e+01  4.5345627265824957e+00  6.0630639232694943e+00  -3.4380754358429151e+00  1.3857659986498227e+01  -8.0341219432391175e-01  1.7246952619128272e+01  1.4912518576757364e+01  4.9705087308931031e+00  -8.2176129413180432e-01  -4.0320830811289143e+00  -3.0862512434241824e+00  -1.2242606450865328e+00  -3.3512809922122866e+00  -2.2838967629711631e+00  9.8439492762843734e+00  -2.1019072621202182e+00  -1.7760783166680936e+00  1.4635858894646287e+01  3.3455494527752272e+00  9.2420119465949622e+00  -2.0421859970715350e+00  1.7587662566040838e+00  -3.5641262851301110e+00  4.8821050503037483e+01  1.0910445723291339e+01  1.6715499833801786e+01  7.6825368238851475e+00  1.5751789195640576e+01  4.2554918330016768e+01  1.8416432249852644e+01  1.3567561670763730e+01  -4.6664891138047224e+00  8.3948237075267631e+00  1.3649938901473304e+01  2.0999102218854979e+01  1.2758808442191876e+01  1.2117647346757174e+01  1.5603597079377650e+01  1.2397863394897511e+01  5.6056402279194417e+00  1.6302813502527830e+01  -2.2766645308090969e+00  1.9417680513342912e+01  1.7745011925092789e-02  -2.0300082980206318e+00  7.0557657463280874e+00  -5.4965281937518622e+00  -5.0047908177281109e+00  4.8294284855305660e+00  1.6936245294066342e+01  9.0027440963177980e+00  1.5242607635133860e+01  -2.3074413929167048e-01  2.0953308046703633e+01  -3.6134424671651013e+00  -3.8453871955965764e+00  2.6450644208243195e+00  -6.9687561950619126e-01  1.7820783064185033e+01  -4.2882681680064136e+00  -5.5098993812958161e+00  -1.3915514144672039e+00  2.8803263289937711e+01  6.3927099682532198e+00  -5.8731513742307917e-01  -2.6480903555916075e+00  -3.0386608838933964e+00  7.6602138353579390e+00  8.2440012385066463e+00  1.6888839888234358e+01  2.3524427141934781e+00  1.8982778407523188e+01  1.4056005069354047e+00  -2.4926790894245046e+00  1.2532769242921882e+01  1.7503713160543210e+01  -2.5426315195523532e+00  1.1843086472904307e+01  2.7843266740491263e+01  5.9618178366181174e-01  2.7625253370798674e+01  1.1692613060103055e+01  3.9786062562192224e+00  1.8300236640420845e+01  -2.8596198133536954e+00  1.3003025957371226e+00  1.1423545477716161e+01  2.2661470866839057e+01  -1.6967494393282838e+00  2.9838221162716884e+01  1.0008179229283932e+01  3.7720037232285271e+00  -3.0779330554726053e-01  1.2849556950559872e+01  1.5163381707050430e+01  1.3959474773916970e+01  -5.5510136181973904e+00  -4.1804096242192141e+00  -1.2422331504995006e+00  -3.0352605747993024e+00  -3.2179298486853702e+00  1.0444976826478337e+01  1.3939894646707616e+01  1.6746585617083127e+01  -1.0687444630187257e+00  -1.4555385291049598e+00  6.9913824248940966e+00  2.9523652805734862e+01  5.3628882653645178e+00  -3.4504343711277898e+00  -4.2733766795913306e+00  -2.3847471641525777e+00  -5.0548109871741245e+00  5.1756224821846364e-01  -4.8924691968565842e-01  -1.5813886048089192e+00  3.4539351166381834e+01  3.6409026897480201e+00  1.1861887978815273e+00  -2.2076784439271027e+00  2.1744238068973716e+00  -3.2995769892252773e+00  3.8694813839800524e-01  -3.5582882890657279e+00  5.7801400655370883e-01  3.8456323412265306e-02  5.2178705194676427e+00  3.5109237369119100e+01  4.1263377722580046e+01  -2.1248486310696060e+00  2.4471666019674124e+01  -6.0292763896396968e+00  -7.1364645571782592e-01  4.7052640833934628e-01  1.5820504383657832e+01  1.5944666343140256e+01  1.6651711706796899e+01  1.8662266498430782e+01  1.1624762076640364e+01  1.3848592266184362e+01  1.3190378469610783e+01  7.4140842041376445e+00  -2.8182215691840447e+00  1.2374656019639132e+00  -1.9905573849526121e+00  1.4819241741508975e+01  -2.6582597129326095e+00  2.9089740595649642e+00  3.3377390072566464e+00  -3.2053743082917312e+00  1.3508951749929260e+01  1.0569807466446736e+01  1.2396054611413373e+01  1.4012131383424132e+01  -3.2513336142125797e+00  -4.9847157424497102e+00  2.3242226572790297e+00  8.9866673185342152e-02  -1.9254947673549456e+00  6.6239494052561554e-01  1.0137452775975287e+01  -4.1418095848217815e+00  1.3825579115002713e+01  1.6564268392736235e+01  5.0646328716606996e+00  3.2322856876527415e+00  3.4460591606565394e+01  3.9576019119221876e+01  2.6177714107994287e+01  1.5131502598918027e+01  1.0544335823112769e+01  1.4146639137072277e+01  1.7118013422569089e+01  4.9763257930156346e+00  1.6476735170934745e+01  1.1635509343607021e+01  -2.0326679664894334e+00  4.2158337725295496e+00  1.6445192759957450e+01  -3.4417321574052728e+00  1.2218917586706599e+01  1.2108142404492551e+01  1.6727132207885351e+01  1.3931726085609462e+01  1.7366394844267877e+01  2.0027205681204602e+01  -3.4804244979131225e+00  1.4908648932850216e+01  2.1245259048145741e+01  -2.7202984955739331e+00  -3.7136798012251688e+00  -8.5018895073143808e-01  7.9339924889601861e+00  -3.9933743809084983e+00  4.7858053563335389e+01  1.4612842128665715e+00  5.8445477803243788e+00  8.9156440410008617e+00  1.0326312567502965e+01  1.5913013597953176e+01  2.2164573203039655e+01  -8.3925938952288059e-01  1.7951827926630166e+01  1.1705887129143626e+01  1.3985812286939732e+01  3.8855571446636503e+01  -1.8212135856919105e+00  8.1536007931497654e+00  1.0786247827310939e+01  -4.1683361332807429e+00  1.4785580523108852e+01  -4.4691404666946637e+00  -3.2648725167653903e-01  6.7306949708270594e+00  1.8328883585033278e+01  1.6063854273931565e+01  7.2947646098235355e+00  5.3856787873385867e+00  1.1657494810439804e+01  9.0751350246581435e+00  -2.3787491288981015e+00  1.7460231076138729e+01  -2.9809173032574199e+00