<?xml version="1.0"?>
<VTKFile type="UnstructuredGrid"  version="0.1"  >
<UnstructuredGrid>
<Piece  NumberOfPoints="5665" NumberOfCells="10866">
<Points>
<DataArray  type="Float64"  NumberOfComponents="3"  format="ascii">0 0 0  0.00523802650254 0.0121532396601 0  0.0103467684479 0.0168997657438 0  0.0154340886717 0.0204190411838 0  0.0205102348999 0.0232981583029 0  0.0255791778495 0.0257645995174 0  0.0306429550051 0.0279350923438 0  0.0357027775993 0.0298790283068 0  0.0407594355585 0.0316416622967 0  0.04581347821 0.0332544652851 0  0.0508653060816 0.0347403835123 0  0.0559152220438 0.0361167684281 0  0.0609634618506 0.0373971263865 0  0.0660102133967 0.0385922218733 0  0.0710556294024 0.0397108042408 0  0.0760998360768 0.040760104003 0  0.0811429392151 0.0417461821674 0  0.0861850286024 0.0426741825307 0  0.091226181266 0.0435485179813 0  0.0962664639231 0.0443730107549 0  0.101305934856 0.0451509998331 0  0.106344645369 0.0458854244307 0  0.111382640935 0.0465788897722 0  0.116419962116 0.0472337195455 0  0.121456645295 0.0478519981879 0  0.126492723281 0.0484356053155 0  0.131528225802 0.0489862440096 0  0.136563179912 0.049505464248 0  0.141597610335 0.0499946824638 0  0.14663153975 0.0504551979851 0  0.151664989038 0.0508882069432 0  0.156697977481 0.051294814111 0  0.161730522945 0.0516760430344 0  0.166762642032 0.0520328447497 0  0.171794350206 0.0523661053196 0  0.176825661915 0.0526766523796 0  0.181856590685 0.0529652608471 0  0.186887149208 0.0532326579222 0  0.191917349423 0.0534795274834 0  0.196947202578 0.0537065139662 0  0.201976719293 0.0539142257971 0  0.207005909613 0.054103238443 0  0.212034783054 0.054274097128 0  0.217063348648 0.0544273192609 0  0.22209161498 0.0545633966097 0  0.227119590218 0.0546827972549 0  0.232147282152 0.0547859673491 0  0.237174698213 0.0548733327044 0  0.242201845504 0.0549453002291 0  0.247228730821 0.0550022592305 0  0.252255360672 0.0550445825984 0  0.257281741298 0.0550726278822 0  0.26230787869 0.0550867382745 0  0.267333778603 0.0550872435086 0  0.272359446573 0.0550744606812 0  0.277384887926 0.0550486950064 0  0.282410107795 0.055010240508 0  0.287435111128 0.0549593806574 0  0.2924599027 0.05489638896 0  0.297484487118 0.0548215294971 0  0.302508868838 0.054735057427 0  0.307533052166 0.0546372194474 0  0.312557041267 0.0545282542252 0  0.317580840174 0.0544083927944 0  0.322604452793 0.0542778589256 0  0.32762788291 0.0541368694706 0  0.332651134193 0.0539856346817 0  0.337674210204 0.0538243585109 0  0.342697114397 0.0536532388878 0  0.347719850126 0.05347246798 0  0.352742420649 0.0532822324362 0  0.357764829133 0.0530827136137 0  0.362787078653 0.0528740877917 0  0.367809172202 0.0526565263713 0  0.372831112689 0.0524301960631 0  0.377852902947 0.0521952590636 0  0.382874545729 0.0519518732206 0  0.387896043718 0.0517001921895 0  0.392917399526 0.0514403655803 0  0.397938615696 0.0511725390953 0  0.402959694705 0.0508968546607 0  0.407980638966 0.0506134505488 0  0.413001450832 0.0503224614953 0  0.418022132594 0.0500240188088 0  0.423042686487 0.049718250475 0  0.428063114688 0.0494052812553 0  0.43308341932 0.0490852327802 0  0.438103602454 0.0487582236378 0  0.443123666107 0.0484243694572 0  0.448143612247 0.0480837829889 0  0.453163442794 0.0477365741799 0  0.45818315962 0.0473828502456 0  0.463202764548 0.0470227157382 0  0.468222259359 0.0466562726115 0  0.473241645789 0.046283620283 0  0.478260925528 0.0459048556925 0  0.483280100228 0.0455200733585 0  0.488299171496 0.0451293654312 0  0.4933181409 0.0447328217439 0  0.498337009969 0.0443305298617 0  0.503355780193 0.0439225751275 0  0.508374453024 0.0435090407068 0  0.513393029875 0.04309000763 0  0.5184115121240001 0.0426655548328 0  0.523429901114 0.0422357591951 0  0.528448198151 0.0418006955781 0  0.533466404508 0.0413604368595 0  0.538484521422 0.0409150539681 0  0.543502550097 0.0404646159158 0  0.548520491706 0.0400091898289 0  0.553538347388 0.0395488409786 0  0.558556118251 0.0390836328089 0  0.56357380537 0.0386136269646 0  0.56859140979 0.038138883318 0  0.573608932526 0.0376594599935 0  0.578626374563 0.0371754133928 0  0.583643736855 0.0366867982178 0  0.5886610203280001 0.0361936674937 0  0.593678225878 0.03569607259 0  0.598695354374 0.0351940632416 0  0.603712406656 0.0346876875693 0  0.6087293835349999 0.0341769920983 0  0.613746285797 0.0336620217776 0  0.618763114198 0.0331428199974 0  0.623779869469 0.0326194286062 0  0.628796552315 0.0320918879282 0  0.633813163412 0.0315602367784 0  0.638829703412 0.0310245124788 0  0.64384617294 0.030484750873 0  0.648862572597 0.0299409863403 0  0.653878902958 0.0293932518103 0  0.658895164572 0.0288415787756 0  0.663911357964 0.0282859973052 0  0.668927483634 0.0277265360567 0  0.673943542058 0.0271632222888 0  0.678959533688 0.0265960818725 0  0.683975458952 0.0260251393027 0  0.688991318252 0.025450417709 0  0.694007111969 0.0248719388664 0  0.69902284046 0.0242897232052 0  0.704038504057 0.0237037898213 0  0.709054103072 0.0231141564854 0  0.7140696377919999 0.0225208396527 0  0.71908510848 0.0219238544714 0  0.724100515378 0.0213232147915 0  0.729115858707 0.0207189331735 0  0.734131138662 0.0201110208964 0  0.739146355418 0.0194994879654 0  0.744161509129 0.0188843431198 0  0.749176599923 0.0182655938405 0  0.754191627911 0.017643246357 0  0.759206593179 0.0170173056545 0  0.764221495793 0.0163877754806 0  0.769236335796 0.0157546583519 0  0.774251113211 0.0151179555607 0  0.77926582804 0.0144776671806 0  0.784280480262 0.0138337920731 0  0.789295069837 0.0131863278932 0  0.794309596702 0.012535271095 0  0.799324060775 0.0118806169373 0  0.804338461953 0.0112223594892 0  0.809352800111 0.0105604916349 0  0.814367075104 0.009895005079049999 0  0.819381286767 0.009225890351540001 0  0.824395434915 0.00855313681244 0  0.829409519341 0.007876732656520001 0  0.834423539818 0.00719666491788 0  0.839437496102 0.00651291947429 0  0.844451387924 0.00582548105153 0  0.849465214999 0.00513433322757 0  0.854478977019 0.0044394584366 0  0.859492673658 0.00374083797302 0  0.86450630457 0.00303845199529 0  0.869519869388 0.00233227952969 0  0.8745333677280001 0.00162229847397 0  0.879546799183 0.000908485600908 0  0.884560163328 0.000190816561787 0  0.889573459719 -0.000530734110215 0  0.894586687892 -0.00125619299673 0  0.899599847364 -0.00198558779101 0  0.904612937631 -0.00271894729474 0  0.909625958173 -0.00345630141504 0  0.914638908446 -0.00419768116146 0  0.919651787892 -0.00494311864308 0  0.9246645959300001 -0.00569264706566 0  0.929677331962 -0.0064463007289 0  0.93468999537 -0.00720411502372 0  0.939702585517 -0.007966126429639999 0  0.944715101748 -0.008732372512219999 0  0.9497275433870001 -0.00950289192052 0  0.954739909742 -0.0102777243847 0  0.9597522001 -0.0110569107135 0  0.96476441373 -0.0118404927922 0  0.969776549882 -0.0126285135801 0  0.974788607787 -0.013421017108 0  0.9798005866590001 -0.0142180484769 0  0.984812485692 -0.0150196538551 0  0.98982430406 -0.0158258804761 0  0.994836040921 -0.0166367766374 0  0.999847695414 -0.0174523916974 0  0.994810629349 -0.0180926058358 0  0.9897736456539999 -0.0187281010754 0  0.984736743465 -0.0193589267749 0  0.97969992194 -0.0199851312315 0  0.974663180255 -0.0206067616788 0  0.969626517604 -0.0212238642852 0  0.964589933199 -0.0218364841514 0  0.959553426272 -0.0224446653085 0  0.954516996073 -0.0230484507158 0  0.949480641871 -0.0236478822584 0  0.944444362954 -0.0242430007451 0  0.939408158627 -0.0248338459061 0  0.9343720282170001 -0.0254204563904 0  0.929335971068 -0.0260028697637 0  0.9242999865430001 -0.0265811225053 0  0.919264074025 -0.0271552500063 0  0.914228232913 -0.0277252865664 0  0.90919246263 -0.0282912653912 0  0.904156762614 -0.0288532185899 0  0.899121132325 -0.0294111771721 0  0.89408557124 -0.0299651710448 0  0.889050078856 -0.0305152290097 0  0.88401465469 -0.0310613787601 0  0.878979298279 -0.0316036468777 0  0.873944009177 -0.0321420588292 0  0.868908786959 -0.0326766389633 0  0.863873631221 -0.0332074105073 0  0.858838541576 -0.0337343955635 0  0.853803517658 -0.0342576151055 0  0.848768559121 -0.0347770889748 0  0.843733665639 -0.0352928358772 0  0.838698836904 -0.0358048733784 0  0.83366407263 -0.0363132179004 0  0.828629372551 -0.0368178847175 0  0.82359473642 -0.0373188879518 0  0.818560164011 -0.0378162405693 0  0.813525655117 -0.0383099543753 0  0.808491209554 -0.0388000400096 0  0.803456827155 -0.0392865069423 0  0.798422507775 -0.0397693634688 0  0.793388251292 -0.0402486167049 0  0.7883540576 -0.0407242725815 0  0.783319926618 -0.0411963358398 0  0.778285858283 -0.0416648100257 0  0.773251852555 -0.0421296974842 0  0.7682179094130001 -0.0425909993539 0  0.7631840288590001 -0.043048715561 0  0.758150210916 -0.0435028448133 0  0.753116455627 -0.0439533845943 0  0.748082763058 -0.0444003311562 0  0.743049133296 -0.0448436795139 0  0.738015566449 -0.0452834234378 0  0.732982062648 -0.0457195554473 0  0.7279486220469999 -0.0461520668028 0  0.722915244818 -0.0465809474992 0  0.71788193116 -0.0470061862575 0  0.712848681291 -0.0474277705173 0  0.707815495453 -0.0478456864284 0  0.702782373912 -0.0482599188427 0  0.697749316952 -0.048670451305 0  0.692716324886 -0.0490772660446 0  0.687683398047 -0.0494803439657 0  0.68265053679 -0.0498796646378 0  0.677617741496 -0.050275206286 0  0.6725850125690001 -0.0506669457807 0  0.667552350436 -0.0510548586271 0  0.66251975555 -0.0514389189539 0  0.657487228385 -0.0518190995028 0  0.652454769442 -0.0521953716159 0  0.647422379246 -0.0525677052243 0  0.642390058346 -0.0529360688354 0  0.637357807317 -0.0533004295197 0  0.63232562676 -0.0536607528977 0  0.6272935173 -0.0540170031258 0  0.622261479589 -0.0543691428823 0  0.617229514303 -0.0547171333519 0  0.612197622148 -0.0550609342106 0  0.607165803852 -0.0554005036097 0  0.602134060175 -0.0557357981591 0  0.5971023919 -0.0560667729098 0  0.592070799839 -0.0563933813366 0  0.587039284832 -0.0567155753188 0  0.582007847748 -0.0570333051213 0  0.576976489483 -
[...]
<PointData  Scalars="u"> 
<DataArray  type="Float64"  Name="u"  format="ascii">7.1104743538862621e+01  6.8973569202686747e+01  6.6936528658016968e+01  6.5032649664532656e+01  6.3265916541697074e+01  6.1561081313917533e+01  5.9961586445679870e+01  5.8423074583629834e+01  5.6945522320775652e+01  5.5539670500799588e+01  5.4188660146209209e+01  5.2897646700792265e+01  5.1654409857526964e+01  5.0465593728714254e+01  4.9319879726452470e+01  4.8221808879153585e+01  4.7162857113466117e+01  4.6147348122137736e+01  4.5175995373097713e+01  4.4235848803853528e+01  4.3332432949034853e+01  4.2459317523998067e+01  4.1621353780643197e+01  4.0812585937135829e+01  4.0037396163686140e+01  3.9286451502956872e+01  3.8562725750238627e+01  3.7869299244876288e+01  3.7199403897960970e+01  3.6550445479825107e+01  3.5927792436372513e+01  3.5324561644653471e+01  3.4743719980703190e+01  3.4185436714149617e+01  3.3644010276043346e+01  3.3124158078143502e+01  3.2619390093129937e+01  3.2132375150270143e+01  3.1665441923921684e+01  3.1212563547794883e+01  3.0773306622588070e+01  3.0351606984194653e+01  2.9942018444836492e+01  2.9551292967080240e+01  2.9170089638550227e+01  2.8803675104097248e+01  2.8447118692752166e+01  2.8103047956953947e+01  2.7773928091411165e+01  2.7454088120257481e+01  2.7142833869521290e+01  2.6844065665246166e+01  2.6553032327895121e+01  2.6274384985572073e+01  2.6007461457899623e+01  2.5746051053718720e+01  2.5493428226978509e+01  2.5251497111720742e+01  2.5015800872929496e+01  2.4785831603664068e+01  2.4565901957277628e+01  2.4351753332725643e+01  2.4145945988237209e+01  2.3948606679800708e+01  2.3755007520855770e+01  2.3569936605366415e+01  2.3388914850462392e+01  2.3216347474184317e+01  2.3047778308574042e+01  2.2885331562409036e+01  2.2725472426263714e+01  2.2572642820655247e+01  2.2424532553779532e+01  2.2282252454218028e+01  2.2147421394406912e+01  2.2014454774439081e+01  2.1884239956396161e+01  2.1759622228177982e+01  2.1637458724430047e+01  2.1520337662429139e+01  2.1409576823854138e+01  2.1302409987105392e+01  2.1196187926250253e+01  2.1095576358900136e+01  2.0999719003775116e+01  2.0905812542586208e+01  2.0812498008499276e+01  2.0724495383852879e+01  2.0637250031207476e+01  2.0554645791832275e+01  2.0473807212939573e+01  2.0395714814013033e+01  2.0320026272663995e+01  2.0247076952930321e+01  2.0176827199773463e+01  2.0109603849293709e+01  2.0045935674308680e+01  1.9981880671320859e+01  1.9922191329743367e+01  1.9862395667116655e+01  1.9807166320553044e+01  1.9751325467979452e+01  1.9699905055372852e+01  1.9647944016348035e+01  1.9599461967371340e+01  1.9550324278974280e+01  1.9505290721876630e+01  1.9460230317339370e+01  1.9420509537324584e+01  1.9379197782914879e+01  1.9340235395227126e+01  1.9300058396699498e+01  1.9261527423442370e+01  1.9224855314292043e+01  1.9190177480229032e+01  1.9156232609635250e+01  1.9125564944282708e+01  1.9094079167709111e+01  1.9062042986790996e+01  1.9032449355100166e+01  1.9002321152936403e+01  1.8975541773676913e+01  1.8948187334063771e+01  1.8924211838902238e+01  1.8898746985136498e+01  1.8876078917340369e+01  1.8851756667511989e+01  1.8830426147239297e+01  1.8808098098632154e+01  1.8785222333928342e+01  1.8765119866141454e+01  1.8743287751977668e+01  1.8723098581545177e+01  1.8705911843493713e+01  1.8687854370402142e+01  1.8667954420454404e+01  1.8650132422079885e+01  1.8633775886994048e+01  1.8614840477147062e+01  1.8596539088937721e+01  1.8579270026642792e+01  1.8560845179409124e+01  1.8543608117860053e+01  1.8525775593877047e+01  1.8508350949404228e+01  1.8491798302073825e+01  1.8475315242944930e+01  1.8456670244408802e+01  1.8440183999539911e+01  1.8421155679225571e+01  1.8403279715463174e+01  1.8382896061998146e+01  1.8364418204345700e+01  1.8343528824466961e+01  1.8325384075508197e+01  1.8304161336712475e+01  1.8280392334369253e+01  1.8256881482134151e+01  1.8231228028268927e+01  1.8206051560871241e+01  1.8181980330669859e+01  1.8154057373581722e+01  1.8125171709909424e+01  1.8095121997968761e+01  1.8064511977111195e+01  1.8030059477187180e+01  1.7995778974055018e+01  1.7957374115342517e+01  1.7918425225522100e+01  1.7875143039174663e+01  1.7831311603029381e+01  1.7784093104581206e+01  1.7734377907963250e+01  1.7680190014499445e+01  1.7624835968631878e+01  1.7563643788504024e+01  1.7500393400043624e+01  1.7430954932847307e+01  1.7358177154420254e+01  1.7282615870520452e+01  1.7199953277047605e+01  1.7110673287195461e+01  1.7017507261247605e+01  1.6916444864362855e+01  1.6811213861734778e+01  1.6699454625751461e+01  1.6578051825784733e+01  1.6450972326900004e+01  1.6313672838527726e+01  1.6170549485183926e+01  1.6016781917990631e+01  1.5852929036545930e+01  1.5681377609952534e+01  1.5498779783909175e+01  1.5307345541527534e+01  1.5105868676619499e+01  1.4897423176179794e+01  1.4684845748158914e+01  1.4472100875180175e+01  1.4272421047605995e+01  1.4577520997423033e+01  1.4849334804420501e+01  1.5104650089645945e+01  1.5346099681009457e+01  1.5575536072622027e+01  1.5791414756114206e+01  1.5992971875957886e+01  1.6184913466874775e+01  1.6367098114031894e+01  1.6538318772166058e+01  1.6700031048264005e+01  1.6850846494691954e+01  1.6990767349379311e+01  1.7124410713889883e+01  1.7251397788801818e+01  1.7371247653736141e+01  1.7484763889005730e+01  1.7589414725671826e+01  1.7687544197344028e+01  1.7783452838507504e+01  1.7874267237604364e+01  1.7960949278636328e+01  1.8043157939478398e+01  1.8119487744818048e+01  1.8189589316134025e+01  1.8259447180247225e+01  1.8326138919658977e+01  1.8390242159664830e+01  1.8449416769920340e+01  1.8505561972695251e+01  1.8561510471413829e+01  1.8613735327206410e+01  1.8665622923053515e+01  1.8714203622225060e+01  1.8762446618207107e+01  1.8807904651439152e+01  1.8849087051657619e+01  1.8892016667873527e+01  1.8932711411433921e+01  1.8974184599700706e+01  1.9012791055065637e+01  1.9052806780174045e+01  1.9091348158241253e+01  1.9128980906083758e+01  1.9163614753471727e+01  1.9197581719614888e+01  1.9231357965556363e+01  1.9265852549596683e+01  1.9301033945620798e+01  1.9333081737956121e+01  1.9367394873948740e+01  1.9399355989062233e+01  1.9430359648212256e+01  1.9462403652406316e+01  1.9496612750694762e+01  1.9528456683903109e+01  1.9559300161639239e+01  1.9592640837342266e+01  1.9627510461661345e+01  1.9660635798503268e+01  1.9696001397295390e+01  1.9729655420353026e+01  1.9761297957072280e+01  1.9795925747639881e+01  1.9831800377480956e+01  1.9867084910196230e+01  1.9904943509761694e+01  1.9941705704936965e+01  1.9976786536614526e+01  2.0014577559869018e+01  2.0054193807389225e+01  2.0094135743954340e+01  2.0135203946871233e+01  2.0175824815588051e+01  2.0215594183527877e+01  2.0257247435142794e+01  2.0301645735305581e+01  2.0345108437288872e+01  2.0391768361145878e+01  2.0437617671225812e+01  2.0482151740126927e+01  2.0529728646301844e+01  2.0580331012860995e+01  2.0630048132581742e+01  2.0680111107912420e+01  2.0734897174045571e+01  2.0790319239216547e+01  2.0848271457950744e+01  2.0903810280742164e+01  2.0959635304661532e+01  2.1018479193383925e+01  2.1079869667783012e+01  2.1144557940205555e+01  2.1209596110738708e+01  2.1278515536229769e+01  2.1347621361073159e+01  2.1420357495488307e+01  2.1492976596832140e+01  2.1568447837535334e+01  2.1642646130994557e+01  2.1721831143770590e+01  2.1803983973515844e+01  2.1887110685411436e+01  2.1974776254068765e+01  2.2062987857787835e+01  2.2151976611370419e+01  2.2245569184071492e+01  2.2342888047164362e+01  2.2440785953541042e+01  2.2543076829702581e+01  2.2647518495723265e+01  2.2752547452513593e+01  2.2863802646856048e+01  2.2976809201820640e+01  2.3095249584623144e+01  2.3215060801882689e+01  2.3340779418988845e+01  2.3469634644667853e+01  2.3602253927228986e+01  2.3735884547826963e+01  2.3873272651637905e+01  2.4013679665706547e+01  2.4160433110354244e+01  2.4314933627915739e+01  2.4471807325947253e+01  2.4633348661851990e+01  2.4795707129208562e+01  2.4966763018292241e+01  2.5143161800374386e+01  2.5322949330957446e+01  2.5509543973707817e+01  2.5703824930090587e+01  2.5901557262046200e+01  2.6105504252795459e+01  2.6317852034446190e+01  2.6535852506421694e+01  2.6757983526645472e+01  2.6988167801279523e+01  2.7227253878583664e+01  2.7471925519309284e+01  2.7725220711759857e+01  2.7983958958625170e+01  2.8253276184807564e+01  2.8528347735521194e+01  2.8815076367280945e+01  2.9109486236979063e+01  2.9414909023822506e+01  2.9727646149435138e+01  3.0052095340478310e+01  3.0386115721337088e+01  3.0730387693574489e+01  3.1081973376846769e+01  3.1449073806287650e+01  3.1826609862372987e+01  3.2217567328835777e+01  3.2620679303007904e+01  3.3037894590153172e+01  3.3468837290304364e+01  3.3913705076574949e+01  3.4372618932550701e+01  3.4846052443173058e+01  3.5331745058853912e+01  3.5836696354793965e+01  3.6357174003556551e+01  3.6897360014831129e+01  3.7453146631553558e+01  3.8029984372667251e+01  3.8623886351787249e+01  3.9240577846309058e+01  3.9874371129939050e+01  4.0529151353425462e+01  4.1210948393598279e+01  4.1915100634740398e+01  4.2643444630963700e+01  4.3392607072090229e+01  4.4169691304274032e+01  4.4975009163252665e+01  4.5805587400666369e+01  4.6669382196544809e+01  4.7559223958651202e+01  4.8483254872642398e+01  4.9438973015918052e+01  5.0427617274234422e+01  5.1451759611510283e+01  5.2509260674415039e+01  5.3600758249518428e+01  5.4736714653858861e+01  5.5914994012488229e+01  5.7127650633737140e+01  5.8390600861245353e+01  5.9689964132066955e+01  6.1044578238029260e+01  6.2437991700034047e+01  6.3885366293591325e+01  6.5360903676246579e+01  6.6896614527094187e+01  6.8460593505639551e+01  7.0028573197645315e+01  4.2542320565883671e+01  0.0000000000000000e+00  0.0000000000000000e+00  0.0000000000000000e+00  7.0409168749744495e+01  7.0968449651895668e+01  4.2571103371491560e+01  4.2692397763605115e+01  4.2627830406815200e+01  4.2680005895167902e+01  4.2624972396092289e+01  4.2550204609658998e+01  4.2607561045206545e+01  4.3026533968687474e+01  4.2811114609527060e+01  4.3019495100032493e+01  4.3833580991574038e+01  4.3900978260759175e+01  4.4570391660571403e+01  4.0984813757687760e+01  5.9060632971015799e+01  0.0000000000000000e+00  0.0000000000000000e+00  0.0000000000000000e+00  0.0000000000000000e+00  0.0000000000000000e+00  0.0000000000000000e+00  0.0000000000000000e+00  0.0000000000000000e+00  0.0000000000000000e+00  0.0000000000000000e+00  0.0000000000000000e+00  0.0000000000000000e+00  0.0000000000000000e+00  0.0000000000000000e+00  0.0000000000000000e+00  0.0000000000000000e+00  0.0000000000000000e+00  0.0000000000000000e+00  0.0000000000000000e+00  0.0000000000000000e+00  0.0000000000000000e+00  0.0000000000000000e+00  0.0000000000000000e+00  0.0000000000000000e+00  0.0000000000000000e+00  0.0000000000000000e+00  0.0000000000000000e+00  0.0000000000000000e+00  0.0000000000000000e+00  0.0000000000000000e+00  4.5574075916757224e+01  4.2753180194537734e+01  4.2442394567195031e+01  4.0897891392211200e+01  4.2644812346311383e+01  4.1216122987841899e+01  4.2482754266899526e+01  4.2083755656838804e+01  4.1996826170999107e+01  4.2434506917409372e+01  4.2089564711621264e+01  4.2510382444494546e+01  4.2303308109627395e+01  4.2601130162566797e+01  4.2429596169679591e+01  4.1854075891967618e+01  3.4500125299717823e+01  4.2774030836914960e+01  4.1997592461156231e+01  3.5433406779402787e+01  3.9919485779158911e+01  3.3817772067479616e+01  4.3065396803925154e+01  3.8208751703225111e+01  3.8091273164853021e+01  4.3907523805304642e+01  3.1145856569470318e+01  2.6481902300770624e+01  3.4748409113185723e+01  4.4836249202404666e+01  2.5480989045725359e+01  2.3590800321671157e+01  2.7819750405385125e+01  4.2752431312752208e+01  4.1547378005244518e+01  3.4237543888829386e+01  2.1818662413055982e+01  2.0136688692356262e+01  3.7995190965094828e+01  2.9404701127675889e+01  4.6131018344343481e+01  3.1108522132016329e+01  4.3285023697597317e+01  2.3828384545078894e+01  2.1816875054639230e+01  2.8592959019167910e+01  3.5059315884524473e+01  1.9487786454682190e+01  2.4726156922924002e+01  3.3420102017014905e+01  2.3310546670151972e+01  2.7320621878223900e+01  4.8892242424539958e+01  5.7870250173690380e+01  2.1224983619207663e+01  1.9778507792711430e+01  2.0583132592928894e+01  1.9483294102085090e+01  1.8710955257150051e+01  1.7984566320722884e+01  4.5315097337503524e+01  2.1955125794361805e+01  2.4669786223556471e+01  3.0074061901406537e+01  3.8884890736185575e+01  3.3762576103008193e+01  4.3995447129625965e+01  1.8802202739530522e+01  1.6929482084515303e+01  2.6421636696584333e+01  2.1312927711524690e+01  2.3389505285763157e+01  2.7409246966332855e+01  1.9725209221422126e+01  5.7633906961742206e+01  2.0265879443089627e+01  1.8808676215888941e+01  4.2638627015615768e+01  1.9399433957439189e+01  1.7739156172602620e+01  5.6220135037128230e+01  6.4258669762572296e+01  1.8954613975193965e+01  1.8653350783727497e+01  2.5585352228569658e+01  2.9936733418850451e+01  2.2609968373091213e+01  2.0744768902275545e+01  2.9837484191693253e+01  2.8894149164011434e+01  2.3937476145549933e+01  2.6457236334247781e+01  2.1368852004608403e+01  4.9828049604860460e+01  2.9626772778514471e+01  3.4343873526974690e+01  2.0180123859427731e+01  1.8374184314331952e+01  1.7992564029392092e+01  1.7358388238830702e+01  1.6550432316613961e+01  1.9673231751934424e+01  1.9235263436622304e+01  1.9567398527266612e+01  6.0989033975446979e+01  4.0387671822727206e+01  1.6377285954143858e+01  3.2837000243089676e+01  3.9243900613051771e+01  2.1719351985105842e+01  1.5403490530715972e+01  4.0595593685083941e+01  1.9567754063967165e+01  4.6354324340281856e+01  2.0580565323096632e+01  5.4936354062290221e+01  2.2640514058990632e+01  2.3986289772192862e+01  2.2131105942684499e+01  1.8820835030742060e+01  1.8255764356951122e+01  1.5149012118318996e+01  2.0234888064926722e+01  1.9894142880806875e+01  2.1868998476465240e+01  2.2721759541333792e+01  1.9001228504557069e+01  2.4836158439817023e+01  4.7034963810494645e+01  4.2744269141241020e+01  2.6842677119774173e+01  4.6732631022851372e+01  5.5960129531401819e+01  6.3884606209182884e+01  1.9218248140351307e+01  3.0264443334020626e+01  1.8139771730332942e+01  1.8703289745739621e+01  1.7578466811522762e+01  1.6475859584817030e+01  2.4853957402179880e+01  3.8850711840486753e+01  6.7649295373343520e+01  4.1585130346263966e+01  2.6022998447298704e+01  2.7523036259197649e+01  1.8453433333792173e+01  3.4037197851987870e+01  2.0827483205198295e+01  4.1370170725821509e+01  3.9490867465957699e+01  2.6680882584970082e+01  2.0983890115939431e+01  1.7669451717410027e+01  1.8813105576941933e+01  2.0436522993179178e+01  1.8555506570874471e+01  1.9393998185699196e+01  3.1212157514029865e+01  1.9737967561669329e+01  2.0055292440565022e+01  3.7249642738318244e+01  2.5091700045664830e+01  1.7502929733485701e+01  1.9650058911994758e+01  2.3309553873749515e+01  1.7941345745613933e+01  6.9148023539327696e+01  2.1577859264207866e+01  4.1957434621808240e+01  2.9111287010040979e+01  3.8022730902774001e+01  6.2972178418244553e+01  4.0469383483769612e+01  3.5301563962791434e+01  1.6777519363462936e+01  3.0041259526314121e+01  3.5164777029899419e+01  4.3943948335805267e+01  2.8052789264902234e+01  3.3436963435407719e+01  3.6826532945900603e+01  3.4627127821569815e+01  2.7894283605867216e+01  4.2345732471356449e+01  1.9575468880725310e+01  4.0533405893099747e+01  2.1814046285461810e+01  1.9711657870011912e+01  2.8922422433439536e+01  1.5306721392734483e+01  1.5972771191572660e+01  2.7453515468413077e+01  4.2767742970349339e+01  1.6029996776431666e+01  4.1976306862572130e+01  2.1387228539613471e+01  4.2247134662382322e+01  1.8261494113160747e+01  1.7952044656453065e+01  2.5346967321732237e+01  2.0998054742046229e+01  4.2862165916462637e+01  1.7328866793803403e+01  1.5555415737286831e+01  2.0254845070568177e+01  5.0344053651184232e+01  2.8090885249734345e+01  2.1049732470697361e+01  1.9012046645325718e+01  1.8541760082259430e+01  2.9774790776364252e+01  3.0122538719414898e+01  3.8314807505751702e+01  2.3899379286835863e+01  4.3239025309120358e+01  2.3683576166186089e+01  1.9193446824787031e+01  3.2247928536360824e+01  4.2486596463795266e+01  1.9327469896128470e+01  3.9486398144015936e+01  4.9218724830462648e+01  2.2187666402954971e+01  4.9302776622566917e+01  2.4006334554652600e+01  2.5850678435077825e+01  4.2469856677216661e+01  1.9032877964199731e+01  2.3083791941613136e+01  3.3347366275281722e+01  4.3682397028952117e+01  1.9994857595722635e+01  5.0831736919940106e+01  3.1516886008445308e+01  2.6003815742101271e+01  2.1157502470332467e+01  2.7954783315999698e+01  4.3063729220218882e+01  4.2431349033691511e+01  1.5331033886453069e+01  1.7158346214371715e+01  2.0582840774134603e+01  1.8870901106570127e+01  1.8700947058888541e+01  3.2050053868903035e+01  3.5565324498019500e+01  4.2648545262899226e+01  2.0593918310832589e+01  2.0227305961413659e+01  2.8322471887811233e+01  5.0330544311177768e+01  2.6923751116407384e+01  1.8025144560655640e+01  1.6941005233911099e+01  1.9480970520876237e+01  1.6233242486683679e+01  2.2312519067372889e+01  2.1321813436777223e+01  2.0254675303483580e+01  5.5399197076153214e+01  2.5161686859545998e+01  2.2764136720979092e+01  1.9496632534505785e+01  2.3543358358052473e+01  1.8623188817076635e+01  2.2744341120945812e+01  1.8343150152568008e+01  2.2153866197128945e+01  2.1653402990712785e+01  2.6891498294606659e+01  5.5923667521988875e+01  6.1854113723858951e+01  1.9603638766710080e+01  4.5652688212712377e+01  1.4790552949929131e+01  2.0743727085490811e+01  2.2189214185825474e+01  4.0801614086363038e+01  4.0495593118167150e+01  4.2643242558432391e+01  4.2195141808404827e+01  3.3543315833716633e+01  3.6125673930880509e+01  3.0187206674419052e+01  2.9823579112126083e+01  1.8825173458770543e+01  2.2617968900579172e+01  1.9680737672051951e+01  3.7566947196901893e+01  1.9068647791313762e+01  2.4447940832095270e+01  2.4912335109735643e+01  1.8459598393659000e+01  3.0546844643576158e+01  2.1451122261620657e+01  2.8847038607404524e+01  3.5925662162204624e+01  1.8292138092707077e+01  1.6001350815703933e+01  2.4096088920939771e+01  2.1704612458038579e+01  1.9777268346824645e+01  2.2342372144340292e+01  3.1761513151510623e+01  1.7294663302917698e+01  3.5102315541314468e+01  4.2531904525757390e+01  2.7714608105419305e+01  2.4833317746006781e+01  5.5125484702598371e+01  6.0093781040701167e+01  4.7092576424808286e+01  3.8671864145819484e+01  3.2780125780300864e+01  3.7429165352580334e+01  4.0406549174342722e+01  2.6470868956215991e+01  4.2754542146193536e+01  2.8078765681893195e+01  1.9818430144159276e+01  2.5959574086055085e+01  3.9453897861345624e+01  1.8479121998863217e+01  3.1425338452731712e+01  2.8804422737749391e+01  4.2400731009684350e+01  4.1541150599275809e+01  3.8721490344650960e+01  4.1432344100943567e+01  1.8285867658385996e+01  3.6413863972465563e+01  4.4424103864317694e+01  1.9167435832551433e+01  1.8145874479534857e+01  2.0803750616240229e+01  2.8671064006170322e+01  1.7761859602245494e+01  6.8149234470929002e+01  2.3305402328177696e+01  2.7173244528464469e+01  3.0322832957256654e+01  3.1699818661854401e+01  4.2611737327577892e+01  4.3937346992457378e+01  2.0850545450086834e+01  4.2331894750437932e+01  2.6903085150614430e+01  3.5263944631891171e+01  5.9768672966750010e+01  1.9917126463497453e+01  2.9710630948234805e+01  2.1128212053129158e+01  1.7515671735353990e+01  3.6957595661511078e+01  1.7085357252731665e+01  2.1724703201274178e+01  2.8189504800301670e+01  4.0904790327744060e+01  4.2168161407558493e+01  2.8981062130562218e+01  2.7110250609741655e+01  3.3237993840044304e+01  3.0720642815001142e+01  1.9323611118009790e+01  4.1423251954657665e+01  1.8840879318461084e+01  2.5262990664435417e+01  1.7633350819421338e+01  2.8337623773061434e+01  2.7487789910991342e+01  3.0729734784229290e+01  1.0332391012499340e+01  4.0934422894839884e+01  4.2141380770968539e+01  2.0803251965706675e+01  4.1466152590252449e+01  9.2608605184934820e+00  3.9249214734433451e+01  2.3475238231250145e+01  1.8927805130787643e+01  1