<?xml version="1.0"?>
<VTKFile type="UnstructuredGrid"  version="0.1"  >
<UnstructuredGrid>
<Piece  NumberOfPoints="5665" NumberOfCells="10866">
<Points>
<DataArray  type="Float64"  NumberOfComponents="3"  format="ascii">0 0 0  0.00523802650254 0.0121532396601 0  0.0103467684479 0.0168997657438 0  0.0154340886717 0.0204190411838 0  0.0205102348999 0.0232981583029 0  0.0255791778495 0.0257645995174 0  0.0306429550051 0.0279350923438 0  0.0357027775993 0.0298790283068 0  0.0407594355585 0.0316416622967 0  0.04581347821 0.0332544652851 0  0.0508653060816 0.0347403835123 0  0.0559152220438 0.0361167684281 0  0.0609634618506 0.0373971263865 0  0.0660102133967 0.0385922218733 0  0.0710556294024 0.0397108042408 0  0.0760998360768 0.040760104003 0  0.0811429392151 0.0417461821674 0  0.0861850286024 0.0426741825307 0  0.091226181266 0.0435485179813 0  0.0962664639231 0.0443730107549 0  0.101305934856 0.0451509998331 0  0.106344645369 0.0458854244307 0  0.111382640935 0.0465788897722 0  0.116419962116 0.0472337195455 0  0.121456645295 0.0478519981879 0  0.126492723281 0.0484356053155 0  0.131528225802 0.0489862440096 0  0.136563179912 0.049505464248 0  0.141597610335 0.0499946824638 0  0.14663153975 0.0504551979851 0  0.151664989038 0.0508882069432 0  0.156697977481 0.051294814111 0  0.161730522945 0.0516760430344 0  0.166762642032 0.0520328447497 0  0.171794350206 0.0523661053196 0  0.176825661915 0.0526766523796 0  0.181856590685 0.0529652608471 0  0.186887149208 0.0532326579222 0  0.191917349423 0.0534795274834 0  0.196947202578 0.0537065139662 0  0.201976719293 0.0539142257971 0  0.207005909613 0.054103238443 0  0.212034783054 0.054274097128 0  0.217063348648 0.0544273192609 0  0.22209161498 0.0545633966097 0  0.227119590218 0.0546827972549 0  0.232147282152 0.0547859673491 0  0.237174698213 0.0548733327044 0  0.242201845504 0.0549453002291 0  0.247228730821 0.0550022592305 0  0.252255360672 0.0550445825984 0  0.257281741298 0.0550726278822 0  0.26230787869 0.0550867382745 0  0.267333778603 0.0550872435086 0  0.272359446573 0.0550744606812 0  0.277384887926 0.0550486950064 0  0.282410107795 0.055010240508 0  0.287435111128 0.0549593806574 0  0.2924599027 0.05489638896 0  0.297484487118 0.0548215294971 0  0.302508868838 0.054735057427 0  0.307533052166 0.0546372194474 0  0.312557041267 0.0545282542252 0  0.317580840174 0.0544083927944 0  0.322604452793 0.0542778589256 0  0.32762788291 0.0541368694706 0  0.332651134193 0.0539856346817 0  0.337674210204 0.0538243585109 0  0.342697114397 0.0536532388878 0  0.347719850126 0.05347246798 0  0.352742420649 0.0532822324362 0  0.357764829133 0.0530827136137 0  0.362787078653 0.0528740877917 0  0.367809172202 0.0526565263713 0  0.372831112689 0.0524301960631 0  0.377852902947 0.0521952590636 0  0.382874545729 0.0519518732206 0  0.387896043718 0.0517001921895 0  0.392917399526 0.0514403655803 0  0.397938615696 0.0511725390953 0  0.402959694705 0.0508968546607 0  0.407980638966 0.0506134505488 0  0.413001450832 0.0503224614953 0  0.418022132594 0.0500240188088 0  0.423042686487 0.049718250475 0  0.428063114688 0.0494052812553 0  0.43308341932 0.0490852327802 0  0.438103602454 0.0487582236378 0  0.443123666107 0.0484243694572 0  0.448143612247 0.0480837829889 0  0.453163442794 0.0477365741799 0  0.45818315962 0.0473828502456 0  0.463202764548 0.0470227157382 0  0.468222259359 0.0466562726115 0  0.473241645789 0.046283620283 0  0.478260925528 0.0459048556925 0  0.483280100228 0.0455200733585 0  0.488299171496 0.0451293654312 0  0.4933181409 0.0447328217439 0  0.498337009969 0.0443305298617 0  0.503355780193 0.0439225751275 0  0.508374453024 0.0435090407068 0  0.513393029875 0.04309000763 0  0.5184115121240001 0.0426655548328 0  0.523429901114 0.0422357591951 0  0.528448198151 0.0418006955781 0  0.533466404508 0.0413604368595 0  0.538484521422 0.0409150539681 0  0.543502550097 0.0404646159158 0  0.548520491706 0.0400091898289 0  0.553538347388 0.0395488409786 0  0.558556118251 0.0390836328089 0  0.56357380537 0.0386136269646 0  0.56859140979 0.038138883318 0  0.573608932526 0.0376594599935 0  0.578626374563 0.0371754133928 0  0.583643736855 0.0366867982178 0  0.5886610203280001 0.0361936674937 0  0.593678225878 0.03569607259 0  0.598695354374 0.0351940632416 0  0.603712406656 0.0346876875693 0  0.6087293835349999 0.0341769920983 0  0.613746285797 0.0336620217776 0  0.618763114198 0.0331428199974 0  0.623779869469 0.0326194286062 0  0.628796552315 0.0320918879282 0  0.633813163412 0.0315602367784 0  0.638829703412 0.0310245124788 0  0.64384617294 0.030484750873 0  0.648862572597 0.0299409863403 0  0.653878902958 0.0293932518103 0  0.658895164572 0.0288415787756 0  0.663911357964 0.0282859973052 0  0.668927483634 0.0277265360567 0  0.673943542058 0.0271632222888 0  0.678959533688 0.0265960818725 0  0.683975458952 0.0260251393027 0  0.688991318252 0.025450417709 0  0.694007111969 0.0248719388664 0  0.69902284046 0.0242897232052 0  0.704038504057 0.0237037898213 0  0.709054103072 0.0231141564854 0  0.7140696377919999 0.0225208396527 0  0.71908510848 0.0219238544714 0  0.724100515378 0.0213232147915 0  0.729115858707 0.0207189331735 0  0.734131138662 0.0201110208964 0  0.739146355418 0.0194994879654 0  0.744161509129 0.0188843431198 0  0.749176599923 0.0182655938405 0  0.754191627911 0.017643246357 0  0.759206593179 0.0170173056545 0  0.764221495793 0.0163877754806 0  0.769236335796 0.0157546583519 0  0.774251113211 0.0151179555607 0  0.77926582804 0.0144776671806 0  0.784280480262 0.0138337920731 0  0.789295069837 0.0131863278932 0  0.794309596702 0.012535271095 0  0.799324060775 0.0118806169373 0  0.804338461953 0.0112223594892 0  0.809352800111 0.0105604916349 0  0.814367075104 0.009895005079049999 0  0.819381286767 0.009225890351540001 0  0.824395434915 0.00855313681244 0  0.829409519341 0.007876732656520001 0  0.834423539818 0.00719666491788 0  0.839437496102 0.00651291947429 0  0.844451387924 0.00582548105153 0  0.849465214999 0.00513433322757 0  0.854478977019 0.0044394584366 0  0.859492673658 0.00374083797302 0  0.86450630457 0.00303845199529 0  0.869519869388 0.00233227952969 0  0.8745333677280001 0.00162229847397 0  0.879546799183 0.000908485600908 0  0.884560163328 0.000190816561787 0  0.889573459719 -0.000530734110215 0  0.894586687892 -0.00125619299673 0  0.899599847364 -0.00198558779101 0  0.904612937631 -0.00271894729474 0  0.909625958173 -0.00345630141504 0  0.914638908446 -0.00419768116146 0  0.919651787892 -0.00494311864308 0  0.9246645959300001 -0.00569264706566 0  0.929677331962 -0.0064463007289 0  0.93468999537 -0.00720411502372 0  0.939702585517 -0.007966126429639999 0  0.944715101748 -0.008732372512219999 0  0.9497275433870001 -0.00950289192052 0  0.954739909742 -0.0102777243847 0  0.9597522001 -0.0110569107135 0  0.96476441373 -0.0118404927922 0  0.969776549882 -0.0126285135801 0  0.974788607787 -0.013421017108 0  0.9798005866590001 -0.0142180484769 0  0.984812485692 -0.0150196538551 0  0.98982430406 -0.0158258804761 0  0.994836040921 -0.0166367766374 0  0.999847695414 -0.0174523916974 0  0.994810629349 -0.0180926058358 0  0.9897736456539999 -0.0187281010754 0  0.984736743465 -0.0193589267749 0  0.97969992194 -0.0199851312315 0  0.974663180255 -0.0206067616788 0  0.969626517604 -0.0212238642852 0  0.964589933199 -0.0218364841514 0  0.959553426272 -0.0224446653085 0  0.954516996073 -0.0230484507158 0  0.949480641871 -0.0236478822584 0  0.944444362954 -0.0242430007451 0  0.939408158627 -0.0248338459061 0  0.9343720282170001 -0.0254204563904 0  0.929335971068 -0.0260028697637 0  0.9242999865430001 -0.0265811225053 0  0.919264074025 -0.0271552500063 0  0.914228232913 -0.0277252865664 0  0.90919246263 -0.0282912653912 0  0.904156762614 -0.0288532185899 0  0.899121132325 -0.0294111771721 0  0.89408557124 -0.0299651710448 0  0.889050078856 -0.0305152290097 0  0.88401465469 -0.0310613787601 0  0.878979298279 -0.0316036468777 0  0.873944009177 -0.0321420588292 0  0.868908786959 -0.0326766389633 0  0.863873631221 -0.0332074105073 0  0.858838541576 -0.0337343955635 0  0.853803517658 -0.0342576151055 0  0.848768559121 -0.0347770889748 0  0.843733665639 -0.0352928358772 0  0.838698836904 -0.0358048733784 0  0.83366407263 -0.0363132179004 0  0.828629372551 -0.0368178847175 0  0.82359473642 -0.0373188879518 0  0.818560164011 -0.0378162405693 0  0.813525655117 -0.0383099543753 0  0.808491209554 -0.0388000400096 0  0.803456827155 -0.0392865069423 0  0.798422507775 -0.0397693634688 0  0.793388251292 -0.0402486167049 0  0.7883540576 -0.0407242725815 0  0.783319926618 -0.0411963358398 0  0.778285858283 -0.0416648100257 0  0.773251852555 -0.0421296974842 0  0.7682179094130001 -0.0425909993539 0  0.7631840288590001 -0.043048715561 0  0.758150210916 -0.0435028448133 0  0.753116455627 -0.0439533845943 0  0.748082763058 -0.0444003311562 0  0.743049133296 -0.0448436795139 0  0.738015566449 -0.0452834234378 0  0.732982062648 -0.0457195554473 0  0.7279486220469999 -0.0461520668028 0  0.722915244818 -0.0465809474992 0  0.71788193116 -0.0470061862575 0  0.712848681291 -0.0474277705173 0  0.707815495453 -0.0478456864284 0  0.702782373912 -0.0482599188427 0  0.697749316952 -0.048670451305 0  0.692716324886 -0.0490772660446 0  0.687683398047 -0.0494803439657 0  0.68265053679 -0.0498796646378 0  0.677617741496 -0.050275206286 0  0.6725850125690001 -0.0506669457807 0  0.667552350436 -0.0510548586271 0  0.66251975555 -0.0514389189539 0  0.657487228385 -0.0518190995028 0  0.652454769442 -0.0521953716159 0  0.647422379246 -0.0525677052243 0  0.642390058346 -0.0529360688354 0  0.637357807317 -0.0533004295197 0  0.63232562676 -0.0536607528977 0  0.6272935173 -0.0540170031258 0  0.622261479589 -0.0543691428823 0  0.617229514303 -0.0547171333519 0  0.612197622148 -0.0550609342106 0  0.607165803852 -0.0554005036097 0  0.602134060175 -0.0557357981591 0  0.5971023919 -0.0560667729098 0  0.592070799839 -0.0563933813366 0  0.587039284832 -0.0567155753188 0  0.582007847748 -0.0570333051213 0  0.576976489483 -
[...]
<PointData  Scalars="u"> 
<DataArray  type="Float64"  Name="u"  format="ascii">4.7576565809155902e+01  4.5266081839448880e+01  4.3086000884134009e+01  4.1059539846303892e+01  3.9175957234051403e+01  3.7368611177209281e+01  3.5665594075275180e+01  3.4032407241898603e+01  3.2468966385778380e+01  3.0977523289994828e+01  2.9547747834121207e+01  2.8178532659923384e+01  2.6864222731503649e+01  2.5603784360808518e+01  2.4392302050428590e+01  2.3227918424778181e+01  2.2108248375294732e+01  2.1031934794768716e+01  1.9997126347206766e+01  1.9002453434202820e+01  1.8045314903173754e+01  1.7124942360735215e+01  1.6238330325503700e+01  1.5385507915816760e+01  1.4563277290026340e+01  1.3772640021695215e+01  1.3009502019812048e+01  1.2273292345947551e+01  1.1565608891385722e+01  1.0884051902708123e+01  1.0225987262949371e+01  9.5929868541517642e+00  8.9812562818144830e+00  8.3911470651103102e+00  7.8235742652466733e+00  7.2752636621447024e+00  6.7479243755064280e+00  6.2375341484417222e+00  5.7442210274938370e+00  5.2703487855594231e+00  4.8135325965028146e+00  4.3709516106798318e+00  3.9441841106647630e+00  3.5306648284945035e+00  3.1344411811290538e+00  2.7507583825567528e+00  2.3814349570639064e+00  2.0233728081408833e+00  1.6766800628665171e+00  1.3439828961547409e+00  1.0230998773425937e+00  7.1161415830878894e-01  4.1200725946678890e-01  1.2008377133653618e-01  -1.6125934281414780e-01  -4.3116852502383779e-01  -6.9329000923783424e-01  -9.4706451500368161e-01  -1.1905142743686621e+00  -1.4254035938342644e+00  -1.6541628559882020e+00  -1.8731479038414949e+00  -2.0857482728062946e+00  -2.2922325470964742e+00  -2.4906269476810983e+00  -2.6835001512120789e+00  -2.8686322233565869e+00  -3.0489355872821275e+00  -3.2226206741384367e+00  -3.3883304748825922e+00  -3.5503589360529801e+00  -3.7072186453322629e+00  -3.8581045288250286e+00  -4.0048808420058686e+00  -4.1482227003210452e+00  -4.2847241308612212e+00  -4.4162322843661679e+00  -4.5442478846823136e+00  -4.6670556341338623e+00  -4.7869770000914391e+00  -4.9038248389381236e+00  -5.0157482721764834e+00  -5.1232778530809915e+00  -5.2288970394118097e+00  -5.3312261958114693e+00  -5.4288130040748603e+00  -5.5225571317205810e+00  -5.6146606243407255e+00  -5.7024306405826923e+00  -5.7885614845101241e+00  -5.8708394560071948e+00  -5.9506210722843909e+00  -6.0275949425215138e+00  -6.1017899656655104e+00  -6.1741655063542655e+00  -6.2436953318139912e+00  -6.3119126290628573e+00  -6.3766968525039269e+00  -6.4405819956433099e+00  -6.5013014424751008e+00  -6.5613474633936519e+00  -6.6180343150981287e+00  -6.6741716264990343e+00  -6.7270657379415439e+00  -6.7790350848029890e+00  -6.8281708996864996e+00  -6.8769764116478234e+00  -6.9234753925763970e+00  -6.9700393549246353e+00  -7.0133353746988538e+00  -7.0556197400117888e+00  -7.0951566233101087e+00  -7.1339182087102389e+00  -7.1717153998844996e+00  -7.2085045858682406e+00  -7.2441006618559749e+00  -7.2794459513480447e+00  -7.3124196401556389e+00  -7.3436777309218977e+00  -7.3748674064394191e+00  -7.4042422395734953e+00  -7.4339363852987912e+00  -7.4617781219642998e+00  -7.4899377209783866e+00  -7.5160085761735651e+00  -7.5422654065190580e+00  -7.5667758905313400e+00  -7.5914370855187805e+00  -7.6141891939033375e+00  -7.6361104556776045e+00  -7.6584189033470498e+00  -7.6788334374599589e+00  -7.6996467963656618e+00  -7.7211119816255698e+00  -7.7409335448625098e+00  -7.7594009335702179e+00  -7.7784966882632203e+00  -7.7977961422299220e+00  -7.8148365391456842e+00  -7.8318860891748621e+00  -7.8491585566408757e+00  -7.8654555091416398e+00  -7.8822044135153302e+00  -7.8977068901827732e+00  -7.9142535805209855e+00  -7.9301190655093734e+00  -7.9464320126057908e+00  -7.9617384193435212e+00  -7.9782987543580806e+00  -7.9936263282184497e+00  -8.0097658633869084e+00  -8.0249749097191074e+00  -8.0415207880720381e+00  -8.0574692808151021e+00  -8.0752789984115498e+00  -8.0917057810089297e+00  -8.1078906687764967e+00  -8.1252784190266905e+00  -8.1425752917479866e+00  -8.1617256371640305e+00  -8.1823704993590400e+00  -8.2019008363911805e+00  -8.2224226092843686e+00  -8.2441523560887866e+00  -8.2676255862458508e+00  -8.2911763857673026e+00  -8.3170249982162279e+00  -8.3431396440460777e+00  -8.3714288956688385e+00  -8.4001631054334993e+00  -8.4315146003964347e+00  -8.4643382647924028e+00  -8.4987637194916328e+00  -8.5349556425996109e+00  -8.5749373349707572e+00  -8.6161890256782261e+00  -8.6609590489772970e+00  -8.7072041478183380e+00  -8.7572102195155157e+00  -8.8115705215530191e+00  -8.8681572660174233e+00  -8.9276182198380223e+00  -8.9920047740387261e+00  -9.0596726059953543e+00  -9.1329886386882571e+00  -9.2109806347812579e+00  -9.2925563572857044e+00  -9.3802597786096715e+00  -9.4719914281339648e+00  -9.5705346421603359e+00  -9.6742455596830439e+00  -9.7834443012666803e+00  -9.8991364158820208e+00  -1.0020005815929387e+01  -1.0147541084177293e+01  -1.0279310502095102e+01  -1.0416376263066851e+01  -1.0552484415259608e+01  -1.0685787860613368e+01  -1.0788064930890092e+01  -1.0530875796047340e+01  -1.0317395315313831e+01  -1.0123216894887246e+01  -9.9416510329130698e+00  -9.7708737009797844e+00  -9.6099802885560344e+00  -9.4575874517636755e+00  -9.3152343049732558e+00  -9.1816213789923307e+00  -9.0553917873881602e+00  -8.9371930727334838e+00  -8.8247019954391419e+00  -8.7176136935963573e+00  -8.6176331560872530e+00  -8.5242641886987141e+00  -8.4356318987849459e+00  -8.3518096857404167e+00  -8.2710051451357618e+00  -8.1937683950913929e+00  -8.1224349923143837e+00  -8.0549177981978985e+00  -7.9909318346911631e+00  -7.9301681604963115e+00  -7.8710004051803493e+00  -7.8128635993324416e+00  -7.7592418963692609e+00  -7.7083067464390584e+00  -7.6596005044749162e+00  -7.6116000881202703e+00  -7.5649901837067350e+00  -7.5213752201419517e+00  -7.4785141883476953e+00  -7.4378524925812615e+00  -7.3975610250570023e+00  -7.3594208026174037e+00  -7.3216956808493991e+00  -7.2834358550145053e+00  -7.2475911388840926e+00  -7.2119261797972065e+00  -7.1778275444444430e+00  -7.1431386774005059e+00  -7.1102655796177237e+00  -7.0777110159964209e+00  -7.0455553983593306e+00  -7.0128234660929527e+00  -6.9801223127562979e+00  -6.9475538096756120e+00  -6.9156480531620250e+00  -6.8845082474824508e+00  -6.8517673145740545e+00  -6.8204003541660407e+00  -6.7882416638715757e+00  -6.7550466638106013e+00  -6.7223124821634404e+00  -6.6906942444189346e+00  -6.6578553099646340e+00  -6.6237106540627657e+00  -6.5905026803334694e+00  -6.5579398251790426e+00  -6.5238211907071113e+00  -6.4903242491955444e+00  -6.4557441126798265e+00  -6.4188328868812086e+00  -6.3826148491015795e+00  -6.3467310703245481e+00  -6.3092169900317936e+00  -6.2723869263139900e+00  -6.2341653346222845e+00  -6.1937760096532353e+00  -6.1534813295079989e+00  -6.1136787831893900e+00  -6.0729465747647540e+00  -6.0313919475407953e+00  -5.9885403586014796e+00  -5.9435741021746882e+00  -5.8978526047568094e+00  -5.8525404991936147e+00  -5.8050996830609645e+00  -5.7580924292768652e+00  -5.7092761967124703e+00  -5.6576545376071143e+00  -5.6055421919980883e+00  -5.5535763840873589e+00  -5.4995411996338230e+00  -5.4429899778651567e+00  -5.3869055661291929e+00  -5.3298535190809666e+00  -5.2720052037239000e+00  -5.2109042430160963e+00  -5.1471104957913791e+00  -5.0822043977768327e+00  -5.0158544486751770e+00  -4.9489974392523530e+00  -4.8791350671988996e+00  -4.8085823213402126e+00  -4.7353395496149737e+00  -4.6612962668648237e+00  -4.5842447391326440e+00  -4.5057067984109178e+00  -4.4231355888193775e+00  -4.3394602473580992e+00  -4.2545024987253441e+00  -4.1660939595345132e+00  -4.0766171885736782e+00  -3.9841093164702017e+00  -3.8874257892276467e+00  -3.7890081161750859e+00  -3.6889251592745294e+00  -3.5850243347537809e+00  -3.4790077261205714e+00  -3.3699008816176010e+00  -3.2564293085602243e+00  -3.1409575524091360e+00  -3.0213418538105596e+00  -2.8993726098353449e+00  -2.7726040789164696e+00  -2.6435456467466412e+00  -2.5108897877354881e+00  -2.3745598262855556e+00  -2.2337350684120492e+00  -2.0881125347353882e+00  -1.9368666740464122e+00  -1.7818771362473804e+00  -1.6247036945591673e+00  -1.4621507886320646e+00  -1.2948509108470396e+00  -1.1198667307942656e+00  -9.4154653809146938e-01  -7.5909749946513694e-01  -5.6958536937908444e-01  -3.7365370827156802e-01  -1.7329161341365068e-01  3.4420439271430181e-02  2.4910728840677576e-01  4.6856036617446500e-01  6.9399348743050815e-01  9.2790850396236901e-01  1.1696507921265140e+00  1.4176687437529936e+00  1.6743325690541579e+00  1.9383826558814941e+00  2.2122374343344666e+00  2.4933129253203226e+00  2.7847311697831172e+00  3.0839416152630998e+00  3.3932023613107991e+00  3.7112750561781516e+00  4.0407888366282165e+00  4.3797080883955761e+00  4.7293024034939419e+00  5.0897868468418110e+00  5.4643547915954356e+00  5.8493046952528136e+00  6.2463865602964326e+00  6.6553666015903579e+00  7.0789235718165076e+00  7.5166980870673195e+00  7.9676037267718209e+00  8.4329821149069755e+00  8.9144944775940136e+00  9.4113297466783923e+00  9.9269125006335184e+00  1.0458637014160789e+01  1.1008897981666497e+01  1.1576456827469578e+01  1.2164126828137055e+01  1.2770460590270895e+01  1.3398521014625647e+01  1.4047488235055422e+01  1.4719119058294252e+01  1.5415412224648867e+01  1.6133876340265932e+01  1.6876066843495440e+01  1.7643175606828699e+01  1.8437882404798660e+01  1.9259640093233944e+01  2.0108911672668377e+01  2.0988668479344742e+01  2.1898861223245863e+01  2.2841725509924224e+01  2.3816767190591658e+01  2.4826361821067618e+01  2.5870315668010747e+01  2.6948462797822788e+01  2.8064677689108709e+01  2.9220091962527778e+01  3.0417223074020150e+01  3.1658287872571556e+01  3.2940162543348102e+01  3.4269445523178263e+01  3.5640745154765632e+01  3.7063162814560407e+01  3.8528686883130547e+01  4.0045203171296762e+01  4.1595260442986550e+01  4.3201686404704752e+01  4.4842223114274603e+01  4.6484967957562453e+01  1.1967260962669174e+01  0.0000000000000000e+00  0.0000000000000000e+00  0.0000000000000000e+00  4.6812086165512049e+01  4.7459384014568776e+01  1.1942522649943839e+01  1.1900037949251885e+01  1.1805544946615575e+01  1.1702102696199280e+01  1.1548376885727237e+01  1.1398762838333885e+01  1.1171654000910568e+01  1.0941105011066270e+01  1.0628719474324928e+01  1.0318058745670626e+01  9.8367092544729697e+00  9.6324681311698548e+00  8.7353973703125156e+00  7.3462792875933820e+00  1.0084717209126316e+01  0.0000000000000000e+00  0.0000000000000000e+00  0.0000000000000000e+00  0.0000000000000000e+00  0.0000000000000000e+00  0.0000000000000000e+00  0.0000000000000000e+00  0.0000000000000000e+00  0.0000000000000000e+00  0.0000000000000000e+00  0.0000000000000000e+00  0.0000000000000000e+00  0.0000000000000000e+00  0.0000000000000000e+00  0.0000000000000000e+00  0.0000000000000000e+00  0.0000000000000000e+00  0.0000000000000000e+00  0.0000000000000000e+00  0.0000000000000000e+00  0.0000000000000000e+00  0.0000000000000000e+00  0.0000000000000000e+00  0.0000000000000000e+00  0.0000000000000000e+00  0.0000000000000000e+00  0.0000000000000000e+00  0.0000000000000000e+00  0.0000000000000000e+00  0.0000000000000000e+00  7.7388600757304511e+00  8.2013682833154924e+00  8.5947502028043985e+00  9.3159119046146834e+00  9.9375046964714109e+00  1.0442579832186597e+01  1.0743855572916070e+01  1.1024122384627095e+01  1.1251352602113149e+01  1.1446022126822657e+01  1.1616153139944313e+01  1.1750440020568540e+01  1.1841403831210826e+01  1.1922555952813315e+01  1.1955798549152451e+01  1.0916217792707265e+01  9.5190944801683521e+00  1.3367921375503284e+01  1.2027278472454542e+01  9.7270662651230797e+00  1.1736547729512981e+01  7.9777155918639000e+00  1.4698608671296393e+01  1.0957983094393752e+01  1.1377037337087330e+01  1.6371351456607687e+01  4.4120261131565943e+00  8.1831232976863060e+00  8.4484150372615225e+00  1.8642408395368165e+01  -1.0597043251607687e+00  -3.2408972076377180e+00  1.7983450716079545e+00  1.7143527927775530e+01  1.4626169316919013e+01  8.2063643127234620e+00  -4.2123007152395724e+00  -6.0075820407211280e+00  1.1972103423622158e+01  2.9097962271749656e+00  2.0295659695659946e+01  5.2025405106248455e+00  1.7936653532299491e+01  -2.2148004644911561e+00  -4.4325459132768676e+00  5.3929232468703461e+00  9.3788237747211003e+00  -6.6727028898497469e+00  -9.8296810578387728e-01  7.9555506385981021e+00  -2.6900153321228077e+00  1.3847496932179781e+00  2.3899627788291109e+01  3.3232145989819855e+01  -4.6074653541020929e+00  -6.0857314771968385e+00  -5.5529897130026526e+00  -6.6734959521609811e+00  -7.4661677732177116e+00  -8.0317614022725845e+00  2.0389678977561118e+01  -3.8994350100162145e+00  -1.0676077030623070e+00  4.5333204464580703e+00  1.3733848348228387e+01  8.0505622457285071e+00  1.8805356927465734e+01  -7.0298965640053543e+00  -8.8290097469217024e+00  -9.7873976811498076e-01  -4.8729688815418895e+00  -2.7437174087207197e+00  8.9749733340124074e+00  -6.2357904661533166e+00  3.3010899047704797e+01  -5.7527004307238432e+00  -7.1210798003172302e+00  1.2460390311897804e+01  -6.8795987903072318e+00  -7.9880305726008469e+00  3.1754080614692000e+01  4.0267719543270161e+01  -7.3649960253079172e+00  -7.6661337176371660e+00  -5.1779591513883394e-01  5.4603192962288833e+00  -3.2959364444689090e+00  -5.2880907110446014e+00  5.5331002878595550e+00  2.9082240059887439e+00  -1.9416650712374530e+00  7.0186297998330038e-01  -4.6446352511943099e+00  2.5257118368844100e+01  3.9944950999410338e+00  8.9404380167247854e+00  -6.0959976249022567e+00  -7.9334697535926422e+00  -8.1906984282611361e+00  -8.6668413785245608e+00  -8.9369652580536929e+00  -6.4166645940245610e+00  -6.8438347092693617e+00  -6.7551306810110230e+00  3.6979024469129762e+01  1.5296688380141516e+01  -9.3598416906123116e+00  7.0176291609146091e+00  1.3766904248310732e+01  -4.5251589007836390e+00  -1.0016171012038656e+01  1.0358398982106181e+01  7.9681754368587319e+00  2.1272862218853810e+01  -5.7137580168060200e+00  3.0371109335226311e+01  -3.5982315299409482e+00  -2.2169242440904187e+00  -4.7994884304311975e+00  -7.2398116322509720e+00  -7.6854648150900733e+00  6.3826413261719823e+00  -5.8733409924811948e+00  -6.2398881791063410e+00  -4.1452815822560485e+00  -3.2487635794517580e+00  -7.3661487548367957e+00  -1.0394677348135948e+00  2.0670139284567654e+01  1.1655852938666520e+01  -1.4802887968239949e-02  2.1987728055554808e+01  3.1732032071956141e+01  3.9880771864135433e+01  -7.1448710249309588e+00  8.7360898551541801e+00  -8.1584717324845197e+00  -7.6780779829350330e+00  -8.2294457921430304e+00  -9.0532033142695258e+00  8.4508593485113739e+00  8.5918221009730189e+00  4.3783947301406826e+01  1.4066293206727526e+01  1.8693759913381142e-01  1.7506518115870993e+00  -7.9209482014058441e+00  9.4521613852852919e+00  -5.2548957611175311e+00  1.2746616033784012e+01  1.0288388706014960e+01  5.7282015558257227e-01  -5.3182027499106468e+00  -8.5007220204923790e+00  -7.5804392722510734e+00  -5.6816975619407257e+00  -7.8384993093292703e+00  -6.7493479884507037e+00  5.6231906224619070e+00  -6.6056747078303690e+00  -6.2794776930978236e+00  1.0169124490055482e+01  -1.0852671167836632e+00  7.1444072643761407e+00  -6.5067312579712615e+00  -2.6489994044166711e+00  -8.0408307288181629e+00  4.5537867039984206e+01  8.0973058659238983e+00  1.2163041431619648e+01  3.4095971152374642e+00  1.1386889994655721e+01  3.9127259697076553e+01  1.4200738110324410e+01  9.3455410876447242e+00  -9.1282922556977528e+00  4.0697867254215998e+00  9.4426686610079482e+00  1.6697480505148874e+01  8.8449439448152933e+00  7.9521744926033344e+00  1.1521582375288528e+01  8.0317255610199894e+00  1.2203544556566703e+00  1.1699632220342712e+01  -6.7291797651034830e+00  1.5429116478012144e+01  -4.4694433152228763e+00  -6.4959313017224627e+00  2.5446333685556688e+00  -9.9456521868382115e+00  -9.4631111191018515e+00  4.5706688948148189e-01  1.2364398466825289e+01  7.1255134828476905e+00  1.0672412153523259e+01  -4.6753487478130271e+00  1.6913257742877764e+01  -8.0933045853751011e+00  -8.3193200373885912e+00  -1.7845788167535797e+00  -5.1038049647999770e+00  1.3290231936536133e+01  -8.7556012226349651e+00  -9.9626191402713236e+00  -5.8450724685803834e+00  2.4829182861958571e+01  2.0233116942576017e+00  -5.0379136862150125e+00  -7.1156955387374978e+00  -7.5061296681639176e+00  3.3267198478669537e+00  3.7822403366895356e+00  1.2754532644546860e+01  -2.0446604482096231e+00  1.4525691614814082e+01  -2.9558690196322743e+00  -6.9618790485437279e+00  8.0930432712423688e+00  1.2965520567547818e+01  -7.0473248345684389e+00  7.6400666119206520e+00  2.3919773962049327e+01  -3.8350215877282356e+00  2.3586568681795800e+01  8.6692027199156385e+00  -3.8559992830009920e-01  1.3841819630507743e+01  -7.3609134609691065e+00  -3.1678565985626701e+00  7.1255517472575534e+00  1.8751149363237921e+01  -6.1594314666976331e+00  2.6003976432535005e+01  5.5867659305799080e+00  -5.7450132157472678e-01  -4.7302649801379202e+00  9.2346392578650764e+00  1.0608084798866036e+01  9.4900028228807560e+00  -1.0006244276317648e+01  -8.6306845705928161e+00  -5.7440742123399913e+00  -7.5336521912082457e+00  -7.7119758964617722e+00  6.1646071320959326e+00  9.4459166094158249e+00  1.2176564221729334e+01  -5.5255506087626802e+00  -5.9169960250166014e+00  2.7023771006147128e+00  2.5778823690507572e+01  9.9860039191942795e-01  -7.9167316282140332e+00  -8.7328857070682471e+00  -6.8916513645070081e+00  -9.5141003676678899e+00  -3.9629677639026331e+00  -4.9839347331591810e+00  -6.0862325855703938e+00  3.0563883889217955e+01  -7.2799045401350604e-01  -3.2340180741115847e+00  -6.6747168606605030e+00  -2.2077901279720860e+00  -7.7916093979019267e+00  -4.0132272472976354e+00  -8.0416541030728954e+00  -3.8531654133075399e+00  -4.4026927344896603e+00  8.9863523843360626e-01  3.1396222116265367e+01  3.7702242011151384e+01  -6.5280806328794760e+00  2.0513388486137124e+01  -1.0476553316728390e+01  -5.1166503501072302e+00  -3.9023697105068904e+00  1.1242876864655344e+01  1.1366719015038498e+01  1.2071210153095745e+01  1.4250302726855775e+01  7.1736257221274702e+00  9.4355998631287648e+00  8.9190188832354611e+00  3.0473840326311628e+00  -7.2871585464983690e+00  -3.1460339358748795e+00  -6.4196873018063956e+00  1.0285476101770122e+01  -7.1145352378440512e+00  -1.4754211901302612e+00  -1.0705703143333647e+00  -7.6494146850344151e+00  9.4629516399240998e+00  7.9145163006649062e+00  8.2498750573748119e+00  9.6784259887893977e+00  -7.7193868375496573e+00  -9.4390075682774164e+00  -2.1267280642686401e+00  -4.3631077816694805e+00  -6.3903703538187502e+00  -3.8002585424205066e+00  5.8605032473132130e+00  -8.5870021295917152e+00  9.3781605909110368e+00  1.1995966836644588e+01  6.6456593581299428e-01  -1.1565558086004033e+00  3.0835532729143541e+01  3.6072939850691675e+01  2.2353538032683630e+01  1.0582595715685690e+01  6.2097582792496659e+00  9.6682409673353487e+00  1.2680746111328860e+01  6.3850682530273328e-01  1.1894909038435650e+01  7.2481979874322420e+00  -6.5390352074066005e+00  -1.9902023508048250e-01  1.2038494386243565e+01  -7.9293417929362571e+00  7.7648237453396174e+00  7.8541118993814987e+00  1.2147354000629051e+01  9.3679677652202660e+00  1.3248638230476693e+01  1.5955253750357036e+01  -7.9453177271411022e+00  1.0744481624154844e+01  1.6925083099294106e+01  -7.2249940294692454e+00  -8.1924215575828754e+00  -5.3050290611341788e+00  3.1366994365777012e+00  -8.4662311570284068e+00  4.4547035684165856e+01  -2.9203034391700800e+00  1.5312759175230450e+00  4.6722273772863323e+00  6.1168768879287772e+00  1.1324893508368662e+01  1.8045998078915147e+01  -5.3141272111393496e+00  1.3456450639710258e+01  7.6435989981327852e+00  9.8645167283546797e+00  3.5225292868780734e+01  -6.3031701998762832e+00  3.8303222412412894e+00  8.1829333646071287e+00  -8.6383373056372541e+00  1.0491045817048988e+01  -8.9355362972640826e+00  -4.6986712324920870e+00  2.4338927974528106e+00  1.4030989746290444e+01  1.1465972760501165e+01  2.9444976278291879e+00  9.9531538409501874e-01  7.4043774964059192