<?xml version="1.0"?>
<VTKFile type="UnstructuredGrid"  version="0.1"  >
<UnstructuredGrid>
<Piece  NumberOfPoints="5665" NumberOfCells="10866">
<Points>
<DataArray  type="Float64"  NumberOfComponents="3"  format="ascii">0 0 0  0.00523802650254 0.0121532396601 0  0.0103467684479 0.0168997657438 0  0.0154340886717 0.0204190411838 0  0.0205102348999 0.0232981583029 0  0.0255791778495 0.0257645995174 0  0.0306429550051 0.0279350923438 0  0.0357027775993 0.0298790283068 0  0.0407594355585 0.0316416622967 0  0.04581347821 0.0332544652851 0  0.0508653060816 0.0347403835123 0  0.0559152220438 0.0361167684281 0  0.0609634618506 0.0373971263865 0  0.0660102133967 0.0385922218733 0  0.0710556294024 0.0397108042408 0  0.0760998360768 0.040760104003 0  0.0811429392151 0.0417461821674 0  0.0861850286024 0.0426741825307 0  0.091226181266 0.0435485179813 0  0.0962664639231 0.0443730107549 0  0.101305934856 0.0451509998331 0  0.106344645369 0.0458854244307 0  0.111382640935 0.0465788897722 0  0.116419962116 0.0472337195455 0  0.121456645295 0.0478519981879 0  0.126492723281 0.0484356053155 0  0.131528225802 0.0489862440096 0  0.136563179912 0.049505464248 0  0.141597610335 0.0499946824638 0  0.14663153975 0.0504551979851 0  0.151664989038 0.0508882069432 0  0.156697977481 0.051294814111 0  0.161730522945 0.0516760430344 0  0.166762642032 0.0520328447497 0  0.171794350206 0.0523661053196 0  0.176825661915 0.0526766523796 0  0.181856590685 0.0529652608471 0  0.186887149208 0.0532326579222 0  0.191917349423 0.0534795274834 0  0.196947202578 0.0537065139662 0  0.201976719293 0.0539142257971 0  0.207005909613 0.054103238443 0  0.212034783054 0.054274097128 0  0.217063348648 0.0544273192609 0  0.22209161498 0.0545633966097 0  0.227119590218 0.0546827972549 0  0.232147282152 0.0547859673491 0  0.237174698213 0.0548733327044 0  0.242201845504 0.0549453002291 0  0.247228730821 0.0550022592305 0  0.252255360672 0.0550445825984 0  0.257281741298 0.0550726278822 0  0.26230787869 0.0550867382745 0  0.267333778603 0.0550872435086 0  0.272359446573 0.0550744606812 0  0.277384887926 0.0550486950064 0  0.282410107795 0.055010240508 0  0.287435111128 0.0549593806574 0  0.2924599027 0.05489638896 0  0.297484487118 0.0548215294971 0  0.302508868838 0.054735057427 0  0.307533052166 0.0546372194474 0  0.312557041267 0.0545282542252 0  0.317580840174 0.0544083927944 0  0.322604452793 0.0542778589256 0  0.32762788291 0.0541368694706 0  0.332651134193 0.0539856346817 0  0.337674210204 0.0538243585109 0  0.342697114397 0.0536532388878 0  0.347719850126 0.05347246798 0  0.352742420649 0.0532822324362 0  0.357764829133 0.0530827136137 0  0.362787078653 0.0528740877917 0  0.367809172202 0.0526565263713 0  0.372831112689 0.0524301960631 0  0.377852902947 0.0521952590636 0  0.382874545729 0.0519518732206 0  0.387896043718 0.0517001921895 0  0.392917399526 0.0514403655803 0  0.397938615696 0.0511725390953 0  0.402959694705 0.0508968546607 0  0.407980638966 0.0506134505488 0  0.413001450832 0.0503224614953 0  0.418022132594 0.0500240188088 0  0.423042686487 0.049718250475 0  0.428063114688 0.0494052812553 0  0.43308341932 0.0490852327802 0  0.438103602454 0.0487582236378 0  0.443123666107 0.0484243694572 0  0.448143612247 0.0480837829889 0  0.453163442794 0.0477365741799 0  0.45818315962 0.0473828502456 0  0.463202764548 0.0470227157382 0  0.468222259359 0.0466562726115 0  0.473241645789 0.046283620283 0  0.478260925528 0.0459048556925 0  0.483280100228 0.0455200733585 0  0.488299171496 0.0451293654312 0  0.4933181409 0.0447328217439 0  0.498337009969 0.0443305298617 0  0.503355780193 0.0439225751275 0  0.508374453024 0.0435090407068 0  0.513393029875 0.04309000763 0  0.5184115121240001 0.0426655548328 0  0.523429901114 0.0422357591951 0  0.528448198151 0.0418006955781 0  0.533466404508 0.0413604368595 0  0.538484521422 0.0409150539681 0  0.543502550097 0.0404646159158 0  0.548520491706 0.0400091898289 0  0.553538347388 0.0395488409786 0  0.558556118251 0.0390836328089 0  0.56357380537 0.0386136269646 0  0.56859140979 0.038138883318 0  0.573608932526 0.0376594599935 0  0.578626374563 0.0371754133928 0  0.583643736855 0.0366867982178 0  0.5886610203280001 0.0361936674937 0  0.593678225878 0.03569607259 0  0.598695354374 0.0351940632416 0  0.603712406656 0.0346876875693 0  0.6087293835349999 0.0341769920983 0  0.613746285797 0.0336620217776 0  0.618763114198 0.0331428199974 0  0.623779869469 0.0326194286062 0  0.628796552315 0.0320918879282 0  0.633813163412 0.0315602367784 0  0.638829703412 0.0310245124788 0  0.64384617294 0.030484750873 0  0.648862572597 0.0299409863403 0  0.653878902958 0.0293932518103 0  0.658895164572 0.0288415787756 0  0.663911357964 0.0282859973052 0  0.668927483634 0.0277265360567 0  0.673943542058 0.0271632222888 0  0.678959533688 0.0265960818725 0  0.683975458952 0.0260251393027 0  0.688991318252 0.025450417709 0  0.694007111969 0.0248719388664 0  0.69902284046 0.0242897232052 0  0.704038504057 0.0237037898213 0  0.709054103072 0.0231141564854 0  0.7140696377919999 0.0225208396527 0  0.71908510848 0.0219238544714 0  0.724100515378 0.0213232147915 0  0.729115858707 0.0207189331735 0  0.734131138662 0.0201110208964 0  0.739146355418 0.0194994879654 0  0.744161509129 0.0188843431198 0  0.749176599923 0.0182655938405 0  0.754191627911 0.017643246357 0  0.759206593179 0.0170173056545 0  0.764221495793 0.0163877754806 0  0.769236335796 0.0157546583519 0  0.774251113211 0.0151179555607 0  0.77926582804 0.0144776671806 0  0.784280480262 0.0138337920731 0  0.789295069837 0.0131863278932 0  0.794309596702 0.012535271095 0  0.799324060775 0.0118806169373 0  0.804338461953 0.0112223594892 0  0.809352800111 0.0105604916349 0  0.814367075104 0.009895005079049999 0  0.819381286767 0.009225890351540001 0  0.824395434915 0.00855313681244 0  0.829409519341 0.007876732656520001 0  0.834423539818 0.00719666491788 0  0.839437496102 0.00651291947429 0  0.844451387924 0.00582548105153 0  0.849465214999 0.00513433322757 0  0.854478977019 0.0044394584366 0  0.859492673658 0.00374083797302 0  0.86450630457 0.00303845199529 0  0.869519869388 0.00233227952969 0  0.8745333677280001 0.00162229847397 0  0.879546799183 0.000908485600908 0  0.884560163328 0.000190816561787 0  0.889573459719 -0.000530734110215 0  0.894586687892 -0.00125619299673 0  0.899599847364 -0.00198558779101 0  0.904612937631 -0.00271894729474 0  0.909625958173 -0.00345630141504 0  0.914638908446 -0.00419768116146 0  0.919651787892 -0.00494311864308 0  0.9246645959300001 -0.00569264706566 0  0.929677331962 -0.0064463007289 0  0.93468999537 -0.00720411502372 0  0.939702585517 -0.007966126429639999 0  0.944715101748 -0.008732372512219999 0  0.9497275433870001 -0.00950289192052 0  0.954739909742 -0.0102777243847 0  0.9597522001 -0.0110569107135 0  0.96476441373 -0.0118404927922 0  0.969776549882 -0.0126285135801 0  0.974788607787 -0.013421017108 0  0.9798005866590001 -0.0142180484769 0  0.984812485692 -0.0150196538551 0  0.98982430406 -0.0158258804761 0  0.994836040921 -0.0166367766374 0  0.999847695414 -0.0174523916974 0  0.994810629349 -0.0180926058358 0  0.9897736456539999 -0.0187281010754 0  0.984736743465 -0.0193589267749 0  0.97969992194 -0.0199851312315 0  0.974663180255 -0.0206067616788 0  0.969626517604 -0.0212238642852 0  0.964589933199 -0.0218364841514 0  0.959553426272 -0.0224446653085 0  0.954516996073 -0.0230484507158 0  0.949480641871 -0.0236478822584 0  0.944444362954 -0.0242430007451 0  0.939408158627 -0.0248338459061 0  0.9343720282170001 -0.0254204563904 0  0.929335971068 -0.0260028697637 0  0.9242999865430001 -0.0265811225053 0  0.919264074025 -0.0271552500063 0  0.914228232913 -0.0277252865664 0  0.90919246263 -0.0282912653912 0  0.904156762614 -0.0288532185899 0  0.899121132325 -0.0294111771721 0  0.89408557124 -0.0299651710448 0  0.889050078856 -0.0305152290097 0  0.88401465469 -0.0310613787601 0  0.878979298279 -0.0316036468777 0  0.873944009177 -0.0321420588292 0  0.868908786959 -0.0326766389633 0  0.863873631221 -0.0332074105073 0  0.858838541576 -0.0337343955635 0  0.853803517658 -0.0342576151055 0  0.848768559121 -0.0347770889748 0  0.843733665639 -0.0352928358772 0  0.838698836904 -0.0358048733784 0  0.83366407263 -0.0363132179004 0  0.828629372551 -0.0368178847175 0  0.82359473642 -0.0373188879518 0  0.818560164011 -0.0378162405693 0  0.813525655117 -0.0383099543753 0  0.808491209554 -0.0388000400096 0  0.803456827155 -0.0392865069423 0  0.798422507775 -0.0397693634688 0  0.793388251292 -0.0402486167049 0  0.7883540576 -0.0407242725815 0  0.783319926618 -0.0411963358398 0  0.778285858283 -0.0416648100257 0  0.773251852555 -0.0421296974842 0  0.7682179094130001 -0.0425909993539 0  0.7631840288590001 -0.043048715561 0  0.758150210916 -0.0435028448133 0  0.753116455627 -0.0439533845943 0  0.748082763058 -0.0444003311562 0  0.743049133296 -0.0448436795139 0  0.738015566449 -0.0452834234378 0  0.732982062648 -0.0457195554473 0  0.7279486220469999 -0.0461520668028 0  0.722915244818 -0.0465809474992 0  0.71788193116 -0.0470061862575 0  0.712848681291 -0.0474277705173 0  0.707815495453 -0.0478456864284 0  0.702782373912 -0.0482599188427 0  0.697749316952 -0.048670451305 0  0.692716324886 -0.0490772660446 0  0.687683398047 -0.0494803439657 0  0.68265053679 -0.0498796646378 0  0.677617741496 -0.050275206286 0  0.6725850125690001 -0.0506669457807 0  0.667552350436 -0.0510548586271 0  0.66251975555 -0.0514389189539 0  0.657487228385 -0.0518190995028 0  0.652454769442 -0.0521953716159 0  0.647422379246 -0.0525677052243 0  0.642390058346 -0.0529360688354 0  0.637357807317 -0.0533004295197 0  0.63232562676 -0.0536607528977 0  0.6272935173 -0.0540170031258 0  0.622261479589 -0.0543691428823 0  0.617229514303 -0.0547171333519 0  0.612197622148 -0.0550609342106 0  0.607165803852 -0.0554005036097 0  0.602134060175 -0.0557357981591 0  0.5971023919 -0.0560667729098 0  0.592070799839 -0.0563933813366 0  0.587039284832 -0.0567155753188 0  0.582007847748 -0.0570333051213 0  0.576976489483 -
[...]
<PointData  Vectors="u"> 
<DataArray  type="Float64"  Name="u"  NumberOfComponents="3" format="ascii">0.0000000000000000e+00 0.0000000000000000e+00 0.0000000000000000e+00  0.0000000000000000e+00 0.0000000000000000e+00 0.0000000000000000e+00  0.0000000000000000e+00 0.0000000000000000e+00 0.0000000000000000e+00  0.0000000000000000e+00 0.0000000000000000e+00 0.0000000000000000e+00  0.0000000000000000e+00 0.0000000000000000e+00 0.0000000000000000e+00  0.0000000000000000e+00 0.0000000000000000e+00 0.0000000000000000e+00  0.0000000000000000e+00 0.0000000000000000e+00 0.0000000000000000e+00  0.0000000000000000e+00 0.0000000000000000e+00 0.0000000000000000e+00  0.0000000000000000e+00 0.0000000000000000e+00 0.0000000000000000e+00  0.0000000000000000e+00 0.0000000000000000e+00 0.0000000000000000e+00  0.0000000000000000e+00 0.0000000000000000e+00 0.0000000000000000e+00  0.0000000000000000e+00 0.0000000000000000e+00 0.0000000000000000e+00  0.0000000000000000e+00 0.0000000000000000e+00 0.0000000000000000e+00  0.0000000000000000e+00 0.0000000000000000e+00 0.0000000000000000e+00  0.0000000000000000e+00 0.0000000000000000e+00 0.0000000000000000e+00  0.0000000000000000e+00 0.0000000000000000e+00 0.0000000000000000e+00  0.0000000000000000e+00 0.0000000000000000e+00 0.0000000000000000e+00  0.0000000000000000e+00 0.0000000000000000e+00 0.0000000000000000e+00  0.0000000000000000e+00 0.0000000000000000e+00 0.0000000000000000e+00  0.0000000000000000e+00 0.0000000000000000e+00 0.0000000000000000e+00  0.0000000000000000e+00 0.0000000000000000e+00 0.0000000000000000e+00  0.0000000000000000e+00 0.0000000000000000e+00 0.0000000000000000e+00  0.0000000000000000e+00 0.0000000000000000e+00 0.0000000000000000e+00  0.0000000000000000e+00 0.0000000000000000e+00 0.0000000000000000e+00  0.0000000000000000e+00 0.0000000000000000e+00 0.0000000000000000e+00  0.0000000000000000e+00 0.0000000000000000e+00 0.0000000000000000e+00  0.0000000000000000e+00 0.0000000000000000e+00 0.0000000000000000e+00  0.0000000000000000e+00 0.0000000000000000e+00 0.0000000000000000e+00  0.0000000000000000e+00 0.0000000000000000e+00 0.0000000000000000e+00  0.0000000000000000e+00 0.0000000000000000e+00 0.0000000000000000e+00  0.0000000000000000e+00 0.0000000000000000e+00 0.0000000000000000e+00  0.0000000000000000e+00 0.0000000000000000e+00 0.0000000000000000e+00  0.0000000000000000e+00 0.0000000000000000e+00 0.0000000000000000e+00  0.0000000000000000e+00 0.0000000000000000e+00 0.0000000000000000e+00  0.0000000000000000e+00 0.0000000000000000e+00 0.0000000000000000e+00  0.0000000000000000e+00 0.0000000000000000e+00 0.0000000000000000e+00  0.0000000000000000e+00 0.0000000000000000e+00 0.0000000000000000e+00  0.0000000000000000e+00 0.0000000000000000e+00 0.0000000000000000e+00  0.0000000000000000e+00 0.0000000000000000e+00 0.0000000000000000e+00  0.0000000000000000e+00 0.0000000000000000e+00 0.0000000000000000e+00  0.0000000000000000e+00 0.0000000000000000e+00 0.0000000000000000e+00  0.0000000000000000e+00 0.0000000000000000e+00 0.0000000000000000e+00  0.0000000000000000e+00 0.0000000000000000e+00 0.0000000000000000e+00  0.0000000000000000e+00 0.0000000000000000e+00 0.0000000000000000e+00  0.0000000000000000e+00 0.0000000000000000e+00 0.0000000000000000e+00  0.0000000000000000e+00 0.0000000000000000e+00 0.0000000000000000e+00  0.0000000000000000e+00 0.0000000000000000e+00 0.0000000000000000e+00  0.0000000000000000e+00 0.0000000000000000e+00 0.0000000000000000e+00  0.0000000000000000e+00 0.0000000000000000e+00 0.0000000000000000e+00  0.0000000000000000e+00 0.0000000000000000e+00 0.0000000000000000e+00  0.0000000000000000e+00 0.0000000000000000e+00 0.0000000000000000e+00  0.0000000000000000e+00 0.0000000000000000e+00 0.0000000000000000e+00  0.0000000000000000e+00 0.0000000000000000e+00 0.0000000000000000e+00  0.0000000000000000e+00 0.0000000000000000e+00 0.0000000000000000e+00  0.0000000000000000e+00 0.0000000000000000e+00 0.0000000000000000e+00  0.0000000000000000e+00 0.0000000000000000e+00 0.0000000000000000e+00  0.0000000000000000e+00 0.0000000000000000e+00 0.0000000000000000e+00  0.0000000000000000e+00 0.0000000000000000e+00 0.0000000000000000e+00  0.0000000000000000e+00 0.0000000000000000e+00 0.0000000000000000e+00  0.0000000000000000e+00 0.0000000000000000e+00 0.0000000000000000e+00  0.0000000000000000e+00 0.0000000000000000e+00 0.0000000000000000e+00  0.0000000000000000e+00 0.0000000000000000e+00 0.0000000000000000e+00  0.0000000000000000e+00 0.0000000000000000e+00 0.0000000000000000e+00  0.0000000000000000e+00 0.0000000000000000e+00 0.0000000000000000e+00  0.0000000000000000e+00 0.0000000000000000e+00 0.0000000000000000e+00  0.0000000000000000e+00 0.0000000000000000e+00 0.0000000000000000e+00  0.0000000000000000e+00 0.0000000000000000e+00 0.0000000000000000e+00  0.0000000000000000e+00 0.0000000000000000e+00 0.0000000000000000e+00  0.0000000000000000e+00 0.0000000000000000e+00 0.0000000000000000e+00  0.0000000000000000e+00 0.0000000000000000e+00 0.0000000000000000e+00  0.0000000000000000e+00 0.0000000000000000e+00 0.0000000000000000e+00  0.0000000000000000e+00 0.0000000000000000e+00 0.0000000000000000e+00  0.0000000000000000e+00 0.0000000000000000e+00 0.0000000000000000e+00  0.0000000000000000e+00 0.0000000000000000e+00 0.0000000000000000e+00  0.0000000000000000e+00 0.0000000000000000e+00 0.0000000000000000e+00  0.0000000000000000e+00 0.0000000000000000e+00 0.0000000000000000e+00  0.0000000000000000e+00 0.0000000000000000e+00 0.0000000000000000e+00  0.0000000000000000e+00 0.0000000000000000e+00 0.0000000000000000e+00  0.0000000000000000e+00 0.0000000000000000e+00 0.0000000000000000e+00  0.0000000000000000e+00 0.0000000000000000e+00 0.0000000000000000e+00  0.0000000000000000e+00 0.0000000000000000e+00 0.0000000000000000e+00  0.0000000000000000e+00 0.0000000000000000e+00 0.0000000000000000e+00  0.0000000000000000e+00 0.0000000000000000e+00 0.0000000000000000e+00  0.0000000000000000e+00 0.0000000000000000e+00 0.0000000000000000e+00  0.0000000000000000e+00 0.0000000000000000e+00 0.0000000000000000e+00  0.0000000000000000e+00 0.0000000000000000e+00 0.0000000000000000e+00  0.0000000000000000e+00 0.0000000000000000e+00 0.0000000000000000e+00  0.0000000000000000e+00 0.0000000000000000e+00 0.0000000000000000e+00  0.0000000000000000e+00 0.0000000000000000e+00 0.0000000000000000e+00  0.0000000000000000e+00 0.0000000000000000e+00 0.0000000000000000e+00  0.0000000000000000e+00 0.0000000000000000e+00 0.0000000000000000e+00  0.0000000000000000e+00 0.0000000000000000e+00 0.0000000000000000e+00  0.0000000000000000e+00 0.0000000000000000e+00 0.0000000000000000e+00  0.0000000000000000e+00 0.0000000000000000e+00 0.0000000000000000e+00  0.0000000000000000e+00 0.0000000000000000e+00 0.0000000000000000e+00  0.0000000000000000e+00 0.0000000000000000e+00 0.0000000000000000e+00  0.0000000000000000e+00 0.0000000000000000e+00 0.0000000000000000e+00  0.0000000000000000e+00 0.0000000000000000e+00 0.0000000000000000e+00  0.0000000000000000e+00 0.0000000000000000e+00 0.0000000000000000e+00  0.0000000000000000e+00 0.0000000000000000e+00 0.0000000000000000e+00  0.0000000000000000e+00 0.0000000000000000e+00 0.0000000000000000e+00  0.0000000000000000e+00 0.0000000000000000e+00 0.0000000000000000e+00  0.0000000000000000e+00 0.0000000000000000e+00 0.0000000000000000e+00  0.0000000000000000e+00 0.0000000000000000e+00 0.0000000000000000e+00  0.0000000000000000e+00 0.0000000000000000e+00 0.0000000000000000e+00  0.0000000000000000e+00 0.0000000000000000e+00 0.0000000000000000e+00  0.0000000000000000e+00 0.0000000000000000e+00 0.0000000000000000e+00  0.0000000000000000e+00 0.0000000000000000e+00 0.0000000000000000e+00  0.0000000000000000e+00 0.0000000000000000e+00 0.0000000000000000e+00  0.0000000000000000e+00 0.0000000000000000e+00 0.0000000000000000e+00  0.0000000000000000e+00 0.0000000000000000e+00 0.0000000000000000e+00  0.0000000000000000e+00 0.0000000000000000e+00 0.0000000000000000e+00  0.0000000000000000e+00 0.0000000000000000e+00 0.0000000000000000e+00  0.0000000000000000e+00 0.0000000000000000e+00 0.0000000000000000e+00  0.0000000000000000e+00 0.0000000000000000e+00 0.0000000000000000e+00  0.0000000000000000e+00 0.0000000000000000e+00 0.0000000000000000e+00  0.0000000000000000e+00 0.0000000000000000e+00 0.0000000000000000e+00  0.0000000000000000e+00 0.0000000000000000e+00 0.0000000000000000e+00  0.0000000000000000e+00 0.0000000000000000e+00 0.0000000000000000e+00  0.0000000000000000e+00 0.0000000000000000e+00 0.0000000000000000e+00  0.0000000000000000e+00 0.0000000000000000e+00 0.0000000000000000e+00  0.0000000000000000e+00 0.0000000000000000e+00 0.0000000000000000e+00  0.0000000000000000e+00 0.0000000000000000e+00 0.0000000000000000e+00  0.0000000000000000e+00 0.0000000000000000e+00 0.0000000000000000e+00  0.0000000000000000e+00 0.0000000000000000e+00 0.0000000000000000e+00  0.0000000000000000e+00 0.0000000000000000e+00 0.0000000000000000e+00  0.0000000000000000e+00 0.0000000000000000e+00 0.0000000000000000e+00  0.0000000000000000e+00 0.0000000000000000e+00 0.0000000000000000e+00  0.0000000000000000e+00 0.0000000000000000e+00 0.0000000000000000e+00  0.0000000000000000e+00 0.0000000000000000e+00 0.0000000000000000e+00  0.0000000000000000e+00 0.0000000000000000e+00 0.0000000000000000e+00  0.0000000000000000e+00 0.0000000000000000e+00 0.0000000000000000e+00  0.0000000000000000e+00 0.0000000000000000e+00 0.0000000000000000e+00  0.0000000000000000e+00 0.0000000000000000e+00 0.0000000000000000e+00  0.0000000000000000e+00 0.0000000000000000e+00 0.0000000000000000e+00  0.0000000000000000e+00 0.0000000000000000e+00 0.0000000000000000e+00  0.0000000000000000e+00 0.0000000000000000e+00 0.0000000000000000e+00  0.0000000000000000e+00 0.0000000000000000e+00 0.0000000000000000e+00  0.0000000000000000e+00 0.0000000000000000e+00 0.0000000000000000e+00  0.0000000000000000e+00 0.0000000000000000e+00 0.0000000000000000e+00  0.0000000000000000e+00 0.0000000000000000e+00 0.0000000000000000e+00  0.0000000000000000e+00 0.0000000000000000e+00 0.0000000000000000e+00  0.0000000000000000e+00 0.0000000000000000e+00 0.0000000000000000e+00  0.0000000000000000e+00 0.0000000000000000e+00 0.0000000000000000e+00  0.0000000000000000e+00 0.0000000000000000e+00 0.0000000000000000e+00  0.0000000000000000e+00 0.0000000000000000e+00 0.0000000000000000e+00  0.0000000000000000e+00 0.0000000000000000e+00 0.0000000000000000e+00  0.0000000000000000e+00 0.0000000000000000e+00 0.0000000000000000e+00  0.0000000000000000e+00 0.0000000000000000e+00 0.0000000000000000e+00  0.0000000000000000e+00 0.0000000000000000e+00 0.0000000000000000e+00  0.0000000000000000e+00 0.0000000000000000e+00 0.0000000000000000e+00  0.0000000000000000e+00 0.0000000000000000e+00 0.0000000000000000e+00  0.0000000000000000e+00 0.0000000000000000e+00 0.0000000000000000e+00  0.0000000000000000e+00 0.0000000000000000e+00 0.0000000000000000e+00  0.0000000000000000e+00 0.0000000000000000e+00 0.0000000000000000e+00  0.0000000000000000e+00 0.0000000000000000e+00 0.0000000000000000e+00  0.0000000000000000e+00 0.0000000000000000e+00 0.0000000000000000e+00  0.0000000000000000e+00 0.0000000000000000e+00 0.0000000000000000e+00  0.0000000000000000e+00 0.0000000000000000e+00 0.0000000000000000e+00  0.0000000000000000e+00 0.0000000000000000e+00 0.0000000000000000e+00  0.0000000000000000e+00 0.0000000000000000e+00 0.0000000000000000e+00  0.0000000000000000e+00 0.0000000000000000e+00 0.0000000000000000e+00  0.0000000000000000e+00 0.0000000000000000e+00 0.0000000000000000e+00  0.0000000000000000e+00 0.0000000000000000e+00 0.0000000000000000e+00  0.0000000000000000e+00 0.0000000000000000e+00 0.0000000000000000e+00  0.0000000000000000e+00 0.0000000000000000e+00 0.0000000000000000e+00  0.0000000000000000e+00 0.0000000000000000e+00 0.0000000000000000e+00  0.0000000000000000e+00 0.0000000000000000e+00 0.0000000000000000e+00  0.0000000000000000e+00 0.0000000000000000e+00 0.0000000000000000e+00  0.0000000000000000e+00 0.0000000000000000e+00 0.0000000000000000e+00  0.0000000000000000e+00 0.0000000000000000e+00 0.0000000000000000e+00  0.0000000000000000e+00 0.0000000000000000e+00 0.0000000000000000e+00  0.0000000000000000e+00 0.0000000000000000e+00 0.0000000000000000e+00  0.0000000000000000e+00 0.0000000000000000e+00 0.0000000000000000e+00  0.0000000000000000e+00 0.0000000000000000e+00 0.0000000000000000e+00  0.0000000000000000e+00 0.0000000000000000e+00 0.0000000000000000e+00  0.0000000000000000e+00 0.0000000000000000e+00 0.0000000000000000e+00  0.0000000000000000e+00 0.0000000000000000e+00 0.0000000000000000e+00  0.0000000000000000e+00 0.0000000000000000e+00 0.0000000000000000e+00  0.0000000000000000e+00 0.0000000000000000e+00 0.0000000000000000e+00  0.0000000000000000e+00 0.0000000000000000e+00 0.0000000000000000e+00  0.0000000000000000e+00 0.0000000000000000e+00 0.0000000000000000e+00  0.0000000000000000e+00 0.0000000000000000e+00 0.0000000000000000e+00  0.0000000000000000e+00 0.0000000000000000e+00 0.0000000000000000e+00  0.0000000000000000e+00 0.0000000000000000e+00 0.0000000000000000e+00  0.0000000000000000e+00 0.0000000000000000e+00 0.0000000000000000e+00  0.0000000000000000e+00 0.0000000000000000e+00 0.0000000000000000e+00  0.0000000000000000e+00 0.0000000000000000e+00 0.0000000000000000e+00  0.0000000000000000e+00 0.0000000000000000e+00 0.0000000000000000e+00  0.0000000000000000e+00 0.0000000000000000e+00 0.0000000000000000e+00  0.0000000000000000e+00 0.0000000000000000e+00 0.0000000000000000e+00  0.0000000000000000e+00 0.0000000000000000e+00 0.0000000000000000e+00  0.0000000000000000e+00 0.0000000000000000e+00 0.0000000000000000e+00  0.0000000000000000e+00 0.0000000000000000e+00 0.0000000000000000e+00  0.0000000000000000e+00 0.0000000000000000e+00 0.0000000000000000e+00  0.0000000000000000e+00 0.0000000000000000e+00 0.0000000000000000e+00  0.0000000000000000e+00 0.0000000000000000e+00 0.0000000000000000e+00  0.0000000000000000e+00 0.0000000000000000e+00 0.0000000000000000e+00  0.0000000000000000e+00 0.0000000000000000e+00 0.0000000000000000e+00  0.0000000000000000e+00 0.0000000000000000e+00 0.0000000000000000e+00  0.0000000000000000e+00 0.0000000000000000e+00 0.0000000000000000e+00  0.0000000000000000e+00 0.0000000000000000e+00 0.0000000000000000e+00  0.0000000000000000e+00 0.0000000000000000e+00 0.0000000000000000e+00  0.0000000000000000e+00 0.0000000000000000e+00 0.0000000000000000e+00  0.0000000000000000e+00 0.0000000000000000e+00 0.0000000000000000e+00  0.0000000000000000e+00 0.0000000000000000e+00 0.0000000000000000e+00  0.0000000000000000e+00 0.0000000000000000e+00 0.0000000000000000e+00  0.0000000000000000e+00 0.0000000000000000e+00 0.0000000000000000e+00  0.0000000000000000e+00 0.0000000000000000e+00 0.0000000000000000e+00  0.0000000000000000e+00 0.0000000000000000e+00 0.0000000000000000e+00  0.0000000000000000e+00 0.0000000000000000e+00 0.0000000000000000e+00  0.0000000000000000e+00 0.0000000000000000e+00 0.0000000000000000e+00  0.0000000000000000e+00 0.0000000000000000e+00 0.0000000000000000e+00  0.0000000000000000e+00 0.0000000000000000e+00 0.0000000000000000e+00  0.0000000000000000e+00 0.0000000000000000e+00 0.0000000000000000e+00  0.0000000000000000e+00 0.0000000000000000e+00 0.0000000000000000e+00  0.0000000000000000e+00 0.0000000000000000e+00 0.0000000000000000e+00  0.0000000000000000e+00 0.0000000000000000e+00 0.0000000000000000e+00  0.0000000000000000e+00 0.0000000000000000e+00 0.0000000000000000e+00  0.0000000000000000e+00 0.0000000000000000e+00 0.0000000000000000e+00  0.0000000000000000e+00 0.0000000000000000e+00 0.0000000000000000e+00  0.0000000000000000e+00 0.0000000000000000e+00 0.0000000000000000e+00  0.0000000000000000e+00 0.0000000000000000e+00 0.0000000000000000e+00  0.0000000000000000e+00 0.0000000000000000e+00 0.0000000000000000e+00  0.0000000000000000e+00 0.0000000000000000e+00 0.0000000000000000e+00  0.0000000000000000e+00 0.0000000000000000e+00 0.0000000000000000e+00  0.0000000000000000e+00 0.0000000000000000e+00 0.0000000000000000e+00  0.0000000000000000e+00 0.0000000000000000e+00 0.0000000000000000e+00  0.0000000000000000e+00 0.0000000000000000e+00 0.0000000000000000e+00  0.0000000000000000e+00 0.0000000000000000e+00 0.0000000000000000e+00  0.0000000000000000e+00 0.0000000000000000e+00 0.0000000000000000e+00  0.0000000000000000e+00 0.0000000000000000e+00 0.0000000000000000e+00  0.0000000000000000e+00 0.0000000000000000e+00 0.0000000000000000e+00  0.0000000000000000e+00 0.0000000000000000e+00 0.0000000000000000e+00  0.0000000000000000e+00 0.0000000000000000e+00 0.0000000000000000e+00  0.0000000000000000e+00 0.0000000000000000e+00 0.0000000000000000e+00  0.0000000000000000e+00 0.0000000000000000e+00 0.0000000000000000e+00  0.0000000000000000e+00 0.0000000000000000e+00 0.0000000000000000e+00  0.0000000000000000e+00 0.0000000000000000e+00 0.0000000000000000e+00  0.0000000000000000e+00 0.0000000000000000e+00 0.0000000000000000e+00  0.0000000000000000e+00 0.0000000000000000e+00 0.0000000000000000e+00  0.0000000000000000e+00 0.0000000000000000e+00 0.0000000000000000e+00  0.0000000000000000e+00 0.0000000000000000e+00 0.0000000000000000e+00  0.0000000000000000e+00 0.0000000000000000e+00 0.0000000000000000e+00  0.0000000000000000e+00 0.0000000000000000e+00 0.0000000000000000e+00  0.0000000000000000e+00 0.0000000000000000e+00 0.0000000000000000e+00  0.0000000000000000e+00 0.0000000000000000e+00 0.0000000000000000e+00  0.0000000000000000e+00 0.0000000000000000e+00 0.0000000000000000e+00  0.0000000000000000e+00 0.0000000000000000e+00 0.0000000000000000e+00  0.0000000000000000e+00 0.0000000000000000e+00 0.0000000000000000e+00  0.0000000000000000e+00 0.0000000000000000e+00 0.0000000000000000e+00  0.0000000000000000e+00 0.0000000000000000e+00 0.0000000000000000e+00  0.0000000000000000e+00 0.0000000000000000e+00 0.0000000000000000e+00  0.0000000000000000e+00 0.0000000000000000e+00 0.0000000000000000e+00  0.0000000000000000e+00 0.0000000000000000e+00 0.0000000000000000e+00  0.0000000000000000e+00 0.0000000000000000e+00 0.0000000000000000e+00  0.0000000000000000e+00 0.0000000000000000e+00 0.0000000000000000e+00  0.0000000000000000e+00 0.0000000000000000e+00 0.0000000000000000e+00  0.0000000000000000e+00 0.0000000000000000e+00 0.0000000000000000e+00  0.0000000000000000e+00 0.0000000000000000e+00 0.0000000000000000e+00  0.0000000000000000e+00 0.0000000000000000e+00 0.0000000000000000e+00  0.0000000000000000e+00 0.0000000000000000e+00 0.0000000000000000e+00  0.0000000000000000e+00 0.0000000000000000e+00 0.0000000000000000e+00  0.0000000000000000e+00 0.0000000000000000e+00 0.0000000000000000e+00  0.0000000000000000e+00 0.0000000000000000e+00 0.0000000000000000e+00  0.0000000000000000e+00 0.0000000000000000e+00 0.0000000000000000e+00  0.0000000000000000e+00 0.0000000000000000e+00 0.0000000000000000e+00  0.0000000000000000e+00 0.0000000000000000e+00 0.0000000000000000e+00  0.0000000000000000e+00 0.0000000000000000e+00 0.0000000000000000e+00  0.0000000000000000e+00 0.0000000000000000e+00 0.0000000000000000e+00  0.0000000000000000e+00 0.0000000000000000e+00 0.0000000000000000e+00  0.0000000000000000e+00 0.0000000000000000e+00 0.0000000000000000e+00  0.0000000000000000e+00 0.0000000000000000e+00 0.0000000000000000e+00  0.0000000000000000e+00 0.0000000000000000e+00 0.0000000000000000e+00  0.0000000000000000e+00 0.0000000000000000e+00 0.0000000000000000e+00  0.0000000000000000e+00 0.0000000000000000e+00 0.0000000000000000e+00  0.0000000000000000e+00 0.0000000000000000e+00 0.0000000000000000e+00  0.0000000000000000e+00 0.0000000000000000e+00 0.0000000000000000e+00  0.0000000000000000e+00 0.0000000000000000e+00 0.0000000000000000e+00  0.0000000000000000e+00 0.0000000000000000e+00 0.0000000000000000e+00  0.0000000000000000e+00 0.0000000000000000e+00 0.0000000000000000e+00  0.0000000000000000e+00 0.0000000000000000e+00 0.0000000000000000e+00  0.0000000000000000e+00 0.0000000000000000e+00 0.0000000000000000e+00  0.0000000000000000e+00 0.0000000000000000e+00 0.0000000000000000e+00  0.0000000000000000